lipids-water
76405
    1POPX   NC3    1   4.114   7.435   6.850 -0.0430  0.2139 -0.1050
    1POPX   PO4    2   4.101   7.032   6.978  0.0538  0.2047 -0.1139
    1POPX   GL1    3   4.165   6.647   6.798 -0.1313 -0.1701 -0.3860
    1POPX   GL2    4   3.922   6.664   6.737 -0.2589 -0.1180  0.0678
    1POPX   C1A    5   4.286   6.504   6.405  0.3505 -0.2171 -0.3461
    1POPX   D2A    6   4.215   6.619   5.901 -0.0493  0.1760 -0.1819
    1POPX   C3A    7   3.962   6.557   5.544  0.3657  0.0831  0.0962
    1POPX   C4A    8   4.027   6.420   5.007 -0.0003 -0.1224  0.0169
    1POPX   C1B    9   3.803   6.712   6.406 -0.0932 -0.0083 -0.0328
    1POPX   C2B   10   3.673   6.545   6.075 -0.1484  0.1161 -0.1122
    1POPX   C3B   11   3.610   6.145   5.836 -0.3324  0.1940 -0.3602
    1POPX   C4B   12   3.601   5.726   5.529 -0.0944  0.0962  0.2029
    2POPX   NC3   13  11.102  14.097   7.509 -0.0730  0.0270 -0.1802
    2POPX   PO4   14  10.913  13.779   7.368  0.4443 -0.0616 -0.1310
    2POPX   GL1   15  10.828  13.979   7.117  0.0134 -0.1118  0.0264
    2POPX   GL2   16  10.634  13.893   7.021  0.0520  0.0476  0.1258
    2POPX   C1A   17  11.075  14.257   6.927  0.0476 -0.0295  0.0150
    2POPX   D2A   18  11.063  14.396   6.427  0.0284  0.2931  0.1410
    2POPX   C3A   19  10.876  14.478   6.040 -0.1411 -0.0721  0.0420
    2POPX   C4A   20  10.808  14.482   5.546 -0.0943 -0.2065 -0.2810
    2POPX   C1B   21  10.654  13.918   6.684 -0.0116 -0.2441  0.0170
    2POPX   C2B   22  10.717  14.002   6.282  0.1041  0.2267 -0.1111
    2POPX   C3B   23  10.756  14.068   5.808 -0.1435 -0.1619  0.1810
    2POPX   C4B   24  10.446  14.118   5.382 -0.1352 -0.1350 -0.0494
    3POPX   NC3   25  17.668  12.764   7.223 -0.1598  0.0575  0.3278
    3POPX   PO4   26  17.721  13.088   7.427  0.0722  0.1843  0.0744
    3POPX   GL1   27  17.361  13.273   7.243 -0.0339 -0.3588 -0.5404
    3POPX   GL2   28  17.476  13.561   7.116  0.3901  0.2877 -0.0122
    3POPX   C1A   29  17.167  13.035   6.858 -0.3815  0.1737  0.3617
    3POPX   D2A   30  17.008  12.781   6.491 -0.1013  0.0547 -0.0934
    3POPX   C3A   31  17.033  12.328   6.413 -0.1734  0.2750 -0.0838
    3POPX   C4A   32  17.077  11.822   6.486 -0.0210 -0.0196  0.1425
    3POPX   C1B   33  17.311  13.460   6.778  0.1080 -0.1500 -0.2608
    3POPX   C2B   34  17.074  13.379   6.483 -0.1406 -0.0365 -0.1541
    3POPX   C3B   35  16.980  13.184   6.033 -0.0327 -0.2061  0.0598
    3POPX   C4B   36  17.067  13.011   5.521 -0.2048  0.2270  0.0852
    4POPX   NC3   37  18.123  23.724   7.325 -0.2146 -0.0970 -0.0076
    4POPX   PO4   38  18.460  23.893   7.481 -0.1334 -0.0063  0.0175
    4POPX   GL1   39  18.671  24.045   7.160  0.0314  0.3491 -0.2375
    4POPX   GL2   40  18.531  23.946   6.956  0.1985 -0.3479 -0.0287
    4POPX   C1A   41  19.038  23.914   6.998  0.0292 -0.0897  0.1876
    4POPX   D2A   42  19.375  23.790   6.609 -0.0165 -0.4112  0.4741
    4POPX   C3A   43  19.181  23.711   6.173 -0.1987 -0.0873 -0.2047
    4POPX   C4A   44  19.339  23.892   5.768  0.3768 -0.0828 -0.0877
    4POPX   C1B   45  18.700  23.916   6.648  0.1236  0.0477 -0.1881
    4POPX   C2B   46  18.850  24.040   6.289  0.0871 -0.2041  0.2239
    4POPX   C3B   47  18.887  24.154   5.769  0.1632 -0.2814 -0.0971
    4POPX   C4B   48  19.012  24.409   5.388 -0.0361 -0.1085  0.0238
    5POPX   NC3   49   3.325   8.718   8.104  0.3050 -0.1152  0.0598
    5POPX   PO4   50   2.994   8.737   7.872 -0.4064  0.0591  0.1381
    5POPX   GL1   51   2.895   8.941   7.524 -0.0100 -0.0330  0.0417
    5POPX   GL2   52   2.796   8.647   7.408 -0.2444  0.1068 -0.0312
    5POPX   C1A   53   2.644   9.023   7.133  0.1487  0.0626  0.0801
    5POPX   D2A   54   2.596   9.304   6.698  0.2788  0.2868 -0.2088
    5POPX   C3A   55   2.664   9.076   6.294  0.1007 -0.1489  0.2424
    5POPX   C4A   56   3.044   8.951   6.015  0.0014 -0.1456  0.4904
    5POPX   C1B   57   2.625   8.509   7.138 -0.3893 -0.1020  0.0922
    5POPX   C2B   58   2.374   8.628   6.805 -0.3770 -0.3190 -0.0326
    5POPX   C3B   59   2.198   8.947   6.495  0.3148  0.1794  0.1631
    5POPX   C4B   60   2.176   9.146   6.050 -0.0474 -0.1602 -0.1445
    6POPX   NC3   61  11.396  20.274   7.228 -0.0939  0.1680 -0.1885
    6POPX   PO4   62  11.126  20.597   7.255 -0.1556  0.3311  0.0204
    6POPX   GL1   63  11.101  20.370   6.902 -0.3208 -0.3213 -0.1028
    6POPX   GL2   64  10.985  20.513   6.660  0.0535 -0.1782  0.1957
    6POPX   C1A   65  11.157  20.007   6.705 -0.2805 -0.0206  0.1589
    6POPX   D2A   66  11.402  19.753   6.364 -0.3063 -0.0326 -0.1864
    6POPX   C3A   67  11.500  19.515   6.002 -0.0530  0.0947  0.1999
    6POPX   C4A   68  11.388  19.302   5.512  0.0993 -0.5109 -0.0790
    6POPX   C1B   69  10.969  20.528   6.238  0.0284  0.2599 -0.1570
    6POPX   C2B   70  10.849  20.453   5.862 -0.0588  0.0663  0.1947
    6POPX   C3B   71  10.718  20.191   5.473 -0.2033  0.1601 -0.1346
    6POPX   C4B   72  10.856  19.947   5.029 -0.0042 -0.2941 -0.0767
    7POPX   NC3   73  27.168  11.082   7.598  0.1902  0.1494  0.0597
    7POPX   PO4   74  27.502  11.296   7.563 -0.2605  0.2681 -0.1821
    7POPX   GL1   75  27.569  11.504   7.158  0.1270  0.3055 -0.1251
    7POPX   GL2   76  27.774  11.586   7.118 -0.1663  0.0799  0.1269
    7POPX   C1A   77  27.285  11.575   6.788  0.0730 -0.1840  0.1862
    7POPX   D2A   78  26.860  11.447   6.600  0.0591  0.0600  0.6468
    7POPX   C3A   79  26.650  11.302   6.184  0.1858 -0.0372  0.0996
    7POPX   C4A   80  26.545  11.073   5.724  0.3162 -0.0583  0.1406
    7POPX   C1B   81  27.659  11.772   6.845 -0.1237  0.2587  0.2317
    7POPX   C2B   82  27.547  11.865   6.447 -0.1029  0.1623  0.0234
    7POPX   C3B   83  27.535  11.854   5.916  0.0033  0.0103 -0.0228
    7POPX   C4B   84  27.570  11.713   5.485 -0.0323  0.3171  0.4154
    8POPX   NC3   85  11.414  13.054   7.304 -0.1998  0.2041  0.1753
    8POPX   PO4   86  11.745  12.837   7.225  0.0953 -0.1497  0.1895
    8POPX   GL1   87  12.013  13.039   6.961 -0.0672 -0.0742 -0.5112
    8POPX   GL2   88  11.876  12.861   6.721 -0.0874  0.1050 -0.0763
    8POPX   C1A   89  11.918  13.389   6.937  0.2217  0.2217 -0.1372
    8POPX   D2A   90  11.725  13.688   6.643  0.0388  0.0929 -0.2784
    8POPX   C3A   91  11.735  14.056   6.482  0.0030  0.3111  0.1162
    8POPX   C4A   92  12.091  14.271   6.146 -0.1491  0.1431 -0.0544
    8POPX   C1B   93  11.696  13.011   6.454  0.1440 -0.2923  0.1353
    8POPX   C2B   94  11.549  13.028   6.063 -0.3371 -0.1295 -0.0819
    8POPX   C3B   95  11.629  13.281   5.670 -0.1448 -0.0012 -0.0525
    8POPX   C4B   96  11.812  13.677   5.496  0.1923 -0.0985  0.2973
    9POPX   NC3   97   7.669   6.471   7.313 -0.3026 -0.2873 -0.2412
    9POPX   PO4   98   7.755   6.098   7.288  0.1147 -0.3659  0.0276
    9POPX   GL1   99   7.680   5.997   6.929  0.1945  0.0102 -0.2061
    9POPX   GL2  100   7.523   5.789   6.917 -0.1856 -0.0976  0.2331
    9POPX   C1A  101   7.836   5.998   6.518  0.3518  0.2636 -0.0787
    9POPX   D2A  102   7.881   6.146   6.034 -0.1448 -0.2639  0.1880
    9POPX   C3A  103   7.824   6.146   5.554  0.0060 -0.0002 -0.0215
    9POPX   C4A  104   7.675   6.206   5.115 -0.2165 -0.0258 -0.1819
    9POPX   C1B  105   7.433   5.848   6.617  0.5381  0.0610 -0.0096
    9POPX   C2B  106   7.361   5.769   6.191 -0.0776  0.0683 -0.0460
    9POPX   C3B  107   7.221   5.794   5.696 -0.1284 -0.0280  0.1022
    9POPX   C4B  108   7.475   5.751   5.332 -0.0407 -0.0820 -0.2545
   10POPX   NC3  109  25.548  14.266   7.819  0.0698  0.1409 -0.0750
   10POPX   PO4  110  25.421  14.351   7.449 -0.3338 -0.0260  0.2804
   10POPX   GL1  111  25.553  14.434   7.145 -0.2166  0.1332 -0.2149
   10POPX   GL2  112  25.803  14.552   7.157  0.0326 -0.0843  0.1073
   10POPX   C1A  113  25.555  14.399   6.699 -0.1649  0.0334 -0.1637
   10POPX   D2A  114  25.701  14.293   6.186  0.1536  0.0666 -0.1006
   10POPX   C3A  115  25.913  14.053   5.836  0.0894 -0.1054  0.0637
   10POPX   C4A  116  26.280  13.771   5.990 -0.0631 -0.2251  0.1683
   10POPX   C1B  117  25.898  14.658   6.849 -0.4654 -0.0044  0.2092
   10POPX   C2B  118  25.936  14.630   6.400 -0.2092 -0.0503 -0.3342
   10POPX   C3B  119  26.058  14.647   5.902  0.1904  0.3242  0.0442
   10POPX   C4B  120  26.170  14.571   5.429  0.0136 -0.1603 -0.0068
   11POPX   NC3  121   4.685   9.373   7.499  0.0193  0.2082 -0.1311
   11POPX   PO4  122   4.948   9.512   7.218 -0.0612 -0.0902 -0.0510
   11POPX   GL1  123   4.827   9.722   6.795  0.0127 -0.2582 -0.0424
   11POPX   GL2  124   4.741   9.481   6.751  0.1608 -0.0523  0.0232
   11POPX   C1A  125   5.032   9.974   6.451  0.1390  0.0284  0.1991
   11POPX   D2A  126   5.222  10.216   6.040  0.3805 -0.0491  0.0817
   11POPX   C3A  127   5.122  10.423   5.600 -0.1325  0.0782 -0.0519
   11POPX   C4A  128   5.229  10.595   5.158 -0.0487  0.0684  0.3446
   11POPX   C1B  129   4.520   9.478   6.479 -0.0818 -0.0132  0.1610
   11POPX   C2B  130   4.455   9.594   6.067  0.0430 -0.1847  0.2514
   11POPX   C3B  131   4.614   9.651   5.628 -0.0835  0.2286 -0.0451
   11POPX   C4B  132   4.653   9.714   5.136  0.2567  0.0369  0.1490
   12POPX   NC3  133   9.691   5.002   7.550 -0.2415 -0.0032  0.0478
   12POPX   PO4  134   9.320   4.961   7.427 -0.0983 -0.0184 -0.0106
   12POPX   GL1  135   9.570   4.683   7.130 -0.0227  0.0019 -0.4851
   12POPX   GL2  136   9.655   4.870   7.076 -0.1168  0.1962  0.1975
   12POPX   C1A  137   9.488   4.540   6.752  0.0875 -0.0455 -0.0355
   12POPX   D2A  138   9.303   4.243   6.337  0.0741 -0.2228 -0.0494
   12POPX   C3A  139   9.537   4.256   5.971  0.2593  0.0579  0.0870
   12POPX   C4A  140   9.660   4.317   5.523  0.3962  0.1799  0.1136
   12POPX   C1B  141   9.702   4.985   6.721 -0.3188 -0.0370  0.0071
   12POPX   C2B  142   9.722   5.109   6.356 -0.1483  0.2008 -0.3484
   12POPX   C3B  143   9.629   4.963   5.924  0.1704  0.3949 -0.0867
   12POPX   C4B  144   9.541   4.824   5.492 -0.0139 -0.1261  0.0333
   13POPX   NC3  145  21.080   3.427   7.603  0.2615  0.2248 -0.4711
   13POPX   PO4  146  20.817   3.214   7.344 -0.2202 -0.0188 -0.0202
   13POPX   GL1  147  20.928   3.356   7.035  0.3167  0.0819  0.0770
   13POPX   GL2  148  21.196   3.449   7.141  0.0447 -0.1157 -0.2398
   13POPX   C1A  149  21.038   3.206   6.645 -0.0047  0.0382  0.4977
   13POPX   D2A  150  21.173   3.226   6.194 -0.0541 -0.1584 -0.3061
   13POPX   C3A  151  21.191   3.341   5.735 -0.0938 -0.2482 -0.1195
   13POPX   C4A  152  21.131   3.281   5.245  0.3049 -0.1146 -0.3938
   13POPX   C1B  153  21.368   3.540   6.807  0.0753  0.2364  0.0607
   13POPX   C2B  154  21.594   3.580   6.454  0.1872  0.0234 -0.0237
   13POPX   C3B  155  21.678   3.362   6.091  0.0238  0.2018 -0.0382
   13POPX   C4B  156  22.115   3.574   6.149  0.1456  0.1790  0.2443
   14POPX   NC3  157   9.062  13.037   7.532  0.0585 -0.3014 -0.0635
   14POPX   PO4  158   8.674  13.174   7.571 -0.2061 -0.1776 -0.0171
   14POPX   GL1  159   8.508  13.072   7.154 -0.1053 -0.0276 -0.1083
   14POPX   GL2  160   8.584  13.331   7.160 -0.0253 -0.0630  0.0280
   14POPX   C1A  161   8.526  13.088   6.741 -0.1284  0.1742  0.1267
   14POPX   D2A  162   8.434  13.075   6.247  0.0368 -0.0440 -0.2436
   14POPX   C3A  163   8.527  13.240   5.771  0.0233  0.1255 -0.0179
   14POPX   C4A  164   8.546  13.237   5.306  0.1884  0.1072 -0.0365
   14POPX   C1B  165   8.776  13.527   6.922 -0.3031 -0.0111  0.2232
   14POPX   C2B  166   8.756  13.470   6.493  0.0770 -0.0057  0.0251
   14POPX   C3B  167   8.888  13.482   6.095  0.1194 -0.1137 -0.0197
   14POPX   C4B  168   8.970  13.376   5.615  0.5041  0.1188  0.0784
   15POPX   NC3  169   9.126   5.364   7.405  0.0155 -0.1722  0.0311
   15POPX   PO4  170   8.768   5.419   7.175  0.1209  0.3922 -0.2339
   15POPX   GL1  171   8.660   5.552   6.858 -0.2880 -0.1965 -0.2816
   15POPX   GL2  172   8.712   5.818   6.821  0.1682  0.0944 -0.0256
   15POPX   C1A  173   8.498   5.309   6.522  0.2026  0.0998  0.1303
   15POPX   D2A  174   8.369   5.277   6.042 -0.0595 -0.1218 -0.0914
   15POPX   C3A  175   8.283   5.180   5.553 -0.1720 -0.2156  0.1986
   15POPX   C4A  176   8.343   5.039   5.085 -0.2251 -0.0079 -0.0924
   15POPX   C1B  177   8.594   5.759   6.488 -0.0923 -0.0277 -0.0536
   15POPX   C2B  178   8.605   5.788   6.086 -0.1944 -0.3009 -0.1615
   15POPX   C3B  179   8.703   5.537   5.707 -0.3073 -0.0687 -0.2703
   15POPX   C4B  180   8.693   5.304   5.312  0.0402 -0.2410 -0.1517
   16POPX   NC3  181   0.507  15.077   7.546  0.2892  0.4470  0.0026
   16POPX   PO4  182   0.605  14.742   7.733 -0.3844 -0.0871  0.3700
   16POPX   GL1  183   0.667  14.470   7.314 -0.1811  0.0061 -0.2835
   16POPX   GL2  184   0.448  14.644   7.321  0.3241  0.0203  0.1427
   16POPX   C1A  185   0.797  14.473   6.890  0.0735  0.1777  0.1055
   16POPX   D2A  186   0.827  14.351   6.437 -0.1059  0.0365 -0.0113
   16POPX   C3A  187   0.722  14.499   6.026  0.2152 -0.0579 -0.0959
   16POPX   C4A  188   0.540  14.508   5.560 -0.0643 -0.0517 -0.2031
   16POPX   C1B  189   0.503  14.799   6.980  0.3377 -0.0804  0.2025
   16POPX   C2B  190   0.492  14.813   6.566 -0.1360  0.3881  0.0833
   16POPX   C3B  191   0.379  14.803   6.102  0.1453 -0.3648 -0.0419
   16POPX   C4B  192   0.378  14.942   5.644  0.1752  0.1621  0.0836
   17POPX   NC3  193  23.173  17.057   7.473 -0.1501 -0.1121  0.1082
   17POPX   PO4  194  23.087  17.442   7.390 -0.2603 -0.1370  0.2196
   17POPX   GL1  195  23.184  17.440   6.944  0.1436  0.0773  0.0096
   17POPX   GL2  196  23.166  17.735   6.960 -0.0440  0.2543  0.0873
   17POPX   C1A  197  23.424  17.396   6.530 -0.4510 -0.3223 -0.3812
   17POPX   D2A  198  23.762  17.355   6.142 -0.3513  0.2117  0.1893
   17POPX   C3A  199  23.776  17.677   5.719 -0.0675  0.5402  0.0558
   17POPX   C4A  200  23.930  17.637   5.252 -0.4210  0.0677 -0.1623
   17POPX   C1B  201  23.306  17.785   6.636 -0.1342  0.3725  0.2426
   17POPX   C2B  202  23.487  17.854   6.296 -0.3298  0.2510 -0.0426
   17POPX   C3B  203  23.728  18.114   5.911  0.3326  0.0781 -0.2322
   17POPX   C4B  204  23.995  18.076   5.502  0.0664  0.0155  0.0414
   18POPX   NC3  205  12.548  13.494   7.934  0.1203 -0.3868 -0.1217
   18POPX   PO4  206  12.662  13.371   7.553  0.0229 -0.0921  0.0455
   18POPX   GL1  207  12.568  13.460   7.169 -0.4265  0.0245  0.1129
   18POPX   GL2  208  12.835  13.588   7.112 -0.1542  0.0878 -0.0263
   18POPX   C1A  209  12.445  13.248   6.836 -0.1383  0.1732 -0.0400
   18POPX   D2A  210  12.121  13.224   6.478 -0.1711  0.0681 -0.0397
   18POPX   C3A  211  11.825  13.396   6.158  0.2600  0.1815  0.3558
   18POPX   C4A  212  11.757  13.835   5.954 -0.1647  0.2293  0.2138
   18POPX   C1B  213  12.755  13.753   6.810 -0.1600 -0.0764 -0.3663
   18POPX   C2B  214  12.623  13.578   6.457 -0.0265  0.0138  0.0015
   18POPX   C3B  215  12.411  13.356   6.035  0.2997 -0.1188 -0.2207
   18POPX   C4B  216  12.040  13.054   5.859 -0.0570  0.0665  0.0011
   19POPX   NC3  217   2.755   0.593   7.734 -0.1615  0.0612 -0.0715
   19POPX   PO4  218   2.992   0.871   7.525 -0.0712  0.2693 -0.2325
   19POPX   GL1  219   2.752   1.199   7.340  0.2123  0.4381 -0.1348
   19POPX   GL2  220   2.894   1.241   7.183  0.0956 -0.1182  0.2437
   19POPX   C1A  221   2.461   1.014   7.006 -0.0406  0.0744  0.0530
   19POPX   D2A  222   2.487   0.871   6.550 -0.0478  0.0323 -0.2782
   19POPX   C3A  223   2.438   0.490   6.248 -0.0151  0.2170 -0.2436
   19POPX   C4A  224   2.279   0.094   5.985  0.3176 -0.0517 -0.0378
   19POPX   C1B  225   3.157   1.024   7.036 -0.1680  0.1692  0.3387
   19POPX   C2B  226   3.150   0.692   6.794  0.0008  0.0652 -0.2958
   19POPX   C3B  227   2.816   0.353   6.582  0.1136 -0.1872  0.0636
   19POPX   C4B  228   2.531   0.019   6.391  0.0714  0.0635 -0.1258
   20POPX   NC3  229  12.764  17.838   7.696  0.0399 -0.1179  0.1345
   20POPX   PO4  230  13.066  17.614   7.612  0.0543  0.1135 -0.0560
   20POPX   GL1  231  13.029  17.545   7.199 -0.2680  0.3782  0.0652
   20POPX   GL2  232  12.725  17.587   7.225 -0.0424  0.1029 -0.1351
   20POPX   C1A  233  13.078  17.498   6.756  0.0700 -0.0874  0.0906
   20POPX   D2A  234  13.257  17.408   6.232 -0.5294 -0.2704 -0.0307
   20POPX   C3A  235  13.301  17.216   5.785  0.1704  0.0794  0.1115
   20POPX   C4A  236  13.344  16.795   5.594 -0.0875 -0.2917  0.0773
   20POPX   C1B  237  12.611  17.440   6.861  0.2637 -0.0981 -0.3408
   20POPX   C2B  238  12.673  17.430   6.476  0.0755  0.1141  0.3771
   20POPX   C3B  239  12.724  17.532   6.008  0.2681 -0.1116  0.1176
   20POPX   C4B  240  12.501  17.395   5.585 -0.3189  0.0171  0.0849
   21POPX   NC3  241   0.543   4.465   7.431  0.4341  0.0052 -0.0563
   21POPX   PO4  242   0.464   4.816   7.576  0.1142 -0.2255  0.1638
   21POPX   GL1  243   0.120   4.859   7.308 -0.2759  0.1407 -0.0677
   21POPX   GL2  244   0.175   4.632   7.138 -0.3658 -0.0006  0.0919
   21POPX   C1A  245   0.004   5.264   7.108 -0.3067 -0.3059  0.1435
   21POPX   D2A  246  -0.135   5.368   6.606 -0.0068  0.3757  0.1311
   21POPX   C3A  247  -0.135   5.399   6.118  0.0378  0.0589 -0.0373
   21POPX   C4A  248  -0.220   5.673   5.671 -0.1986 -0.0105  0.3741
   21POPX   C1B  249   0.100   4.613   6.774  0.1725  0.0272 -0.1305
   21POPX   C2B  250   0.134   4.504   6.368  0.1555 -0.1594  0.2365
   21POPX   C3B  251   0.022   4.440   5.872 -0.2108 -0.0943  0.1464
   21POPX   C4B  252  -0.077   4.279   5.454 -0.1061  0.2414 -0.2887
   22POPX   NC3  253  11.272   0.944   7.750  0.0417 -0.1722 -0.2289
   22POPX   PO4  254  11.403   1.229   7.531  0.0491  0.0178 -0.1466
   22POPX   GL1  255  11.496   1.253   7.206  0.0278 -0.0837  0.3001
   22POPX   GL2  256  11.636   1.491   7.175  0.4955 -0.1862  0.1690
   22POPX   C1A  257  11.559   0.998   6.894 -0.0115 -0.2151 -0.1821
   22POPX   D2A  258  11.558   0.646   6.511  0.0997 -0.0377  0.2154
   22POPX   C3A  259  11.725   0.510   6.070 -0.1746  0.0679 -0.2690
   22POPX   C4A  260  11.757   0.752   5.632 -0.0072 -0.0630  0.2120
   22POPX   C1B  261  11.854   1.393   6.825 -0.2322  0.0635  0.3862
   22POPX   C2B  262  11.870   1.236   6.445  0.3787 -0.1558 -0.2484
   22POPX   C3B  263  12.000   1.010   6.051  0.0404 -0.1725 -0.2372
   22POPX   C4B  264  12.188   0.940   5.568 -0.2387 -0.2736  0.0930
   23POPX   NC3  265  27.054   8.195   7.726  0.1508  0.1081 -0.3443
   23POPX   PO4  266  26.994   7.823   7.667 -0.0825  0.0363  0.1525
   23POPX   GL1  267  26.987   7.749   7.264 -0.0540 -0.0710  0.1366
   23POPX   GL2  268  27.261   7.955   7.289  0.1560  0.1385  0.1407
   23POPX   C1A  269  26.654   7.921   6.978 -0.1044  0.0833  0.1645
   23POPX   D2A  270  26.627   7.985   6.481 -0.0497  0.0424  0.1071
   23POPX   C3A  271  26.720   7.844   6.104 -0.3640  0.4900 -0.0563
   23POPX   C4A  272  26.956   7.758   5.750  0.0831 -0.1411 -0.1803
   23POPX   C1B  273  27.365   8.235   7.070  0.2711  0.4243  0.1251
   23POPX   C2B  274  27.468   8.431   6.711  0.5526 -0.1670 -0.1259
   23POPX   C3B  275  27.657   8.782   6.477  0.1671  0.3442  0.1157
   23POPX   C4B  276  27.887   8.856   5.985  0.1364  0.0685 -0.2693
   24POPX   NC3  277  15.077   3.827   7.751 -0.0242  0.2229  0.0418
   24POPX   PO4  278  14.699   3.891   7.814  0.1959  0.1682 -0.2179
   24POPX   GL1  279  14.566   3.891   7.400 -0.2380 -0.0407 -0.1322
   24POPX   GL2  280  14.341   3.751   7.437 -0.0647  0.4254 -0.1743
   24POPX   C1A  281  15.006   3.865   7.256  0.0474 -0.1111 -0.0127
   24POPX   D2A  282  15.273   3.871   6.775  0.1131  0.1233  0.3902
   24POPX   C3A  283  15.341   3.837   6.324 -0.3386 -0.0482  0.2083
   24POPX   C4A  284  15.307   3.575   5.905 -0.1751  0.0789  0.1683
   24POPX   C1B  285  14.279   3.558   7.119  0.0193  0.0249  0.1421
   24POPX   C2B  286  14.333   3.354   6.786  0.2132  0.0194 -0.0381
   24POPX   C3B  287  14.557   3.112   6.434  0.0151 -0.2109 -0.0546
   24POPX   C4B  288  14.706   2.827   6.053 -0.0165  0.0438 -0.0357
   25POPX   NC3  289   6.966   6.716   7.568 -0.2039  0.2818  0.0327
   25POPX   PO4  290   7.323   6.768   7.351 -0.3102 -0.0413  0.0094
   25POPX   GL1  291   7.470   6.920   7.026  0.0588 -0.0187 -0.0038
   25POPX   GL2  292   7.754   6.895   7.016 -0.0624  0.0205 -0.1190
   25POPX   C1A  293   7.273   6.990   6.619  0.2833  0.1472  0.4193
   25POPX   D2A  294   7.303   6.785   6.161  0.1226  0.0398  0.1415
   25POPX   C3A  295   6.965   6.640   5.866 -0.2932  0.1453 -0.2407
   25POPX   C4A  296   6.640   6.742   5.520  0.0213 -0.2664 -0.2885
   25POPX   C1B  297   7.753   6.836   6.691  0.1346  0.0878 -0.3453
   25POPX   C2B  298   7.755   6.797   6.254  0.1406 -0.3214 -0.1927
   25POPX   C3B  299   7.677   6.675   5.817 -0.1497 -0.6150 -0.0317
   25POPX   C4B  300   7.525   6.615   5.325  0.0351  0.0120 -0.0542
   26POPX   NC3  301  17.025  24.547   7.928 -0.0443  0.2963 -0.2046
   26POPX   PO4  302  16.847  24.809   7.726 -0.0058 -0.1786 -0.1816
   26POPX   GL1  303  16.772  25.072   7.501 -0.0130 -0.0362 -0.3147
   26POPX   GL2  304  16.495  25.013   7.301  0.0505 -0.0964 -0.4963
   26POPX   C1A  305  16.881  25.054   7.089 -0.1990  0.2915  0.1441
   26POPX   D2A  306  17.128  25.158   6.638  0.2377 -0.2576  0.2467
   26POPX   C3A  307  17.010  25.133   6.268  0.1787  0.1184  0.2955
   26POPX   C4A  308  16.910  25.616   6.045  0.0600  0.1367 -0.3804
   26POPX   C1B  309  16.487  25.075   6.947  0.3627  0.0469 -0.2360
   26POPX   C2B  310  16.623  25.056   6.546 -0.1932 -0.0008  0.1771
   26POPX   C3B  311  16.481  25.152   6.061 -0.0283 -0.2948 -0.2699
   26POPX   C4B  312  16.238  25.334   5.682 -0.0400  0.2272  0.1381
   27POPX   NC3  313   3.716  19.533   7.839 -0.0545 -0.0401  0.2399
   27POPX   PO4  314   3.644  19.917   7.896  0.1655 -0.3794  0.3027
   27POPX   GL1  315   3.720  20.066   7.437  0.3749 -0.3454  0.3817
   27POPX   GL2  316   3.623  19.706   7.389 -0.3903  0.6460  0.0199
   27POPX   C1A  317   3.863  20.272   7.047  0.1431 -0.2335  0.2422
   27POPX   D2A  318   3.751  20.444   6.624 -0.0199  0.0958  0.2436
   27POPX   C3A  319   3.884  20.691   6.258 -0.3784  0.0646  0.1742
   27POPX   C4A  320   3.751  20.584   5.834 -0.1630  0.3127 -0.3468
   27POPX   C1B  321   3.667  19.599   6.996 -0.2907  0.2809  0.0214
   27POPX   C2B  322   3.891  19.508   6.704  0.0416  0.0627  0.1113
   27POPX   C3B  323   3.891  19.391   6.266  0.4387 -0.0406  0.0981
   27POPX   C4B  324   3.773  19.707   5.919 -0.0512  0.0810  0.1874
   28POPX   NC3  325  26.185   4.899   8.476  0.2427  0.2247  0.3880
   28POPX   PO4  326  26.124   5.235   8.230 -0.1179 -0.1387  0.0631
   28POPX   GL1  327  26.095   5.287   7.904 -0.3929  0.1216 -0.3733
   28POPX   GL2  328  25.905   5.425   7.785 -0.0062  0.0472 -0.2415
   28POPX   C1A  329  26.234   5.222   7.550 -0.0091  0.2666  0.0690
   28POPX   D2A  330  26.423   5.151   7.076 -0.2039 -0.1788 -0.0295
   28POPX   C3A  331  26.805   4.820   7.041  0.3170 -0.2416 -0.2532
   28POPX   C4A  332  26.844   4.693   7.444  0.1187  0.2361  0.1130
   28POPX   C1B  333  25.772   5.400   7.452  0.0773 -0.1279  0.1624
   28POPX   C2B  334  25.502   5.242   7.184 -0.0835 -0.4866 -0.0387
   28POPX   C3B  335  25.557   5.129   6.726  0.0584 -0.0322  0.1004
   28POPX   C4B  336  25.663   5.021   6.263  0.1302  0.0873 -0.0246
   29POPX   NC3  337  23.847  18.579   7.313 -0.1226 -0.1598 -0.5831
   29POPX   PO4  338  23.858  18.976   7.283  0.1577  0.3125 -0.0158
   29POPX   GL1  339  23.967  18.930   6.920  0.2700 -0.0694  0.0079
   29POPX   GL2  340  23.925  19.255   6.868  0.1380  0.2731 -0.4284
   29POPX   C1A  341  23.916  18.842   6.555 -0.0064  0.0563 -0.2629
   29POPX   D2A  342  23.808  19.211   6.289  0.3114  0.0151 -0.1957
   29POPX   C3A  343  23.530  19.188   5.980  0.0720  0.1518  0.3087
   29POPX   C4A  344  23.464  19.285   5.533 -0.1058  0.3005  0.1632
   29POPX   C1B  345  23.631  19.448   6.708 -0.1523  0.2116  0.0589
   29POPX   C2B  346  23.307  19.321   6.457  0.0696  0.0582 -0.0814
   29POPX   C3B  347  22.942  18.989   6.161 -0.2040  0.0609 -0.1966
   29POPX   C4B  348  23.078  18.868   5.674 -0.1773 -0.1561  0.1294
   30POPX   NC3  349  11.957  17.260   7.661 -0.0462  0.0116  0.0941
   30POPX   PO4  350  12.264  16.984   7.729  0.0399 -0.1014 -0.0714
   30POPX   GL1  351  12.473  16.901   7.449  0.2674 -0.0013  0.0671
   30POPX   GL2  352  12.424  16.733   7.195 -0.1438  0.0520  0.1266
   30POPX   C1A  353  12.800  17.078   7.210  0.0493  0.4290  0.0615
   30POPX   D2A  354  12.975  17.032   6.774 -0.0048  0.0938 -0.0653
   30POPX   C3A  355  12.971  17.004   6.297 -0.1764  0.2925  0.0603
   30POPX   C4A  356  12.858  17.069   5.908 -0.0890  0.1312 -0.0375
   30POPX   C1B  357  12.422  16.803   6.810 -0.2225 -0.3217  0.2294
   30POPX   C2B  358  12.488  16.782   6.394  0.1038  0.2325 -0.1829
   30POPX   C3B  359  12.558  16.549   5.961 -0.1937  0.1695  0.1176
   30POPX   C4B  360  12.677  16.373   5.584 -0.0825  0.0999 -0.0625
   31POPX   NC3  361   7.389  21.349   7.588  0.2160  0.0990 -0.1316
   31POPX   PO4  362   7.676  21.199   7.854  0.0032  0.0398 -0.0806
   31POPX   GL1  363   7.852  21.175   7.523  0.2347  0.0502  0.6650
   31POPX   GL2  364   7.856  20.899   7.464 -0.2942 -0.2062 -0.0006
   31POPX   C1A  365   8.136  21.256   7.155  0.1370 -0.2452  0.1631
   31POPX   D2A  366   8.402  21.390   6.703  0.0669  0.1345 -0.0715
   31POPX   C3A  367   8.107  21.449   6.441 -0.0439 -0.0594 -0.3324
   31POPX   C4A  368   8.089  21.514   5.991  0.2512 -0.2547 -0.1137
   31POPX   C1B  369   7.820  20.910   7.114  0.0383 -0.0014  0.6576
   31POPX   C2B  370   7.858  21.028   6.672 -0.2450  0.3347 -0.2670
   31POPX   C3B  371   7.904  21.034   6.153  0.3622  0.0784  0.0975
   31POPX   C4B  372   8.081  20.748   5.771 -0.1056  0.0785  0.1688
   32POPX   NC3  373   5.212  19.146   7.431 -0.0647  0.2258 -0.0241
   32POPX   PO4  374   5.434  18.784   7.505  0.1226 -0.0995  0.2569
   32POPX   GL1  375   5.499  18.617   7.113  0.2004 -0.2705  0.3004
   32POPX   GL2  376   5.556  18.962   7.100  0.2747  0.0020  0.0517
   32POPX   C1A  377   5.530  18.369   6.765  0.0618  0.0070  0.2514
   32POPX   D2A  378   5.545  18.330   6.277  0.0107  0.0744  0.2166
   32POPX   C3A  379   5.570  18.129   5.902 -0.0097  0.0783 -0.2995
   32POPX   C4A  380   5.566  17.981   5.428  0.1327 -0.4498 -0.5278
   32POPX   C1B  381   5.569  18.939   6.728  0.1825  0.2946  0.1085
   32POPX   C2B  382   5.554  18.776   6.369  0.1201 -0.0656  0.1678
   32POPX   C3B  383   5.669  18.619   5.907 -0.0523  0.3967 -0.3142
   32POPX   C4B  384   5.660  18.589   5.456  0.2050 -0.2137 -0.3854
   33POPX   NC3  385  20.212  16.985   7.049 -0.4192 -0.0163 -0.0477
   33POPX   PO4  386  20.556  17.172   7.109 -0.2086 -0.2624  0.1044
   33POPX   GL1  387  20.653  17.261   6.733  0.0513 -0.0112  0.1945
   33POPX   GL2  388  20.626  17.042   6.630  0.0800 -0.3096 -0.0777
   33POPX   C1A  389  20.942  17.441   6.421 -0.3505  0.1321 -0.2162
   33POPX   D2A  390  21.134  17.797   6.155  0.1912  0.0281 -0.1325
   33POPX   C3A  391  20.777  17.886   5.826 -0.0020 -0.0261  0.0728
   33POPX   C4A  392  20.375  17.841   5.531  0.2538 -0.4912 -0.0491
   33POPX   C1B  393  20.792  16.821   6.406  0.0348  0.1100  0.1093
   33POPX   C2B  394  21.097  16.598   6.289  0.0829 -0.1206 -0.0716
   33POPX   C3B  395  21.427  16.399   5.984  0.0142  0.1842  0.0054
   33POPX   C4B  396  21.525  16.274   5.531 -0.0634  0.2127 -0.1112
   34POPX   NC3  397  22.146  26.390   7.009  0.1092 -0.1508  0.0663
   34POPX   PO4  398  21.883  26.389   7.318 -0.2288 -0.1170  0.1844
   34POPX   GL1  399  21.475  26.305   7.197 -0.2200  0.2898  0.0199
   34POPX   GL2  400  21.539  26.505   7.054  0.0174 -0.1701  0.2837
   34POPX   C1A  401  21.383  26.089   6.825  0.0266  0.1673  0.1401
   34POPX   D2A  402  21.173  25.790   6.543 -0.0140  0.3212  0.2724
   34POPX   C3A  403  21.164  25.592   6.108  0.0891  0.2402  0.2331
   34POPX   C4A  404  20.948  25.371   5.677 -0.1631 -0.1870 -0.3558
   34POPX   C1B  405  21.598  26.480   6.721  0.2517 -0.1375  0.3080
   34POPX   C2B  406  21.380  26.350   6.391 -0.0207  0.0010 -0.4499
   34POPX   C3B  407  21.209  26.101   6.022 -0.2247  0.5322 -0.1423
   34POPX   C4B  408  21.118  25.979   5.560 -0.1344  0.0549  0.0255
   35POPX   NC3  409  22.933  22.050   7.260  0.1101  0.2651  0.1106
   35POPX   PO4  410  23.184  21.817   7.419 -0.0401 -0.2582 -0.1816
   35POPX   GL1  411  23.127  21.719   6.975  0.2592  0.2064  0.1923
   35POPX   GL2  412  23.403  21.936   6.995 -0.1538  0.1502 -0.2430
   35POPX   C1A  413  22.971  22.027   6.624 -0.1639 -0.0823 -0.3320
   35POPX   D2A  414  22.782  22.052   6.128  0.4251 -0.0606  0.3986
   35POPX   C3A  415  22.998  21.994   5.707 -0.2773  0.1828 -0.1610
   35POPX   C4A  416  23.232  21.996   5.324 -0.0531 -0.2448 -0.0034
   35POPX   C1B  417  23.437  22.063   6.647  0.0426  0.3502  0.3567
   35POPX   C2B  418  23.278  21.985   6.238  0.3049 -0.1346 -0.0927
   35POPX   C3B  419  23.541  22.276   5.888 -0.1528  0.4139  0.0744
   35POPX   C4B  420  23.800  22.176   5.443  0.1016  0.0086  0.0397
   36POPX   NC3  421  24.005  16.595   7.552  0.0934 -0.1053 -0.1117
   36POPX   PO4  422  23.656  16.680   7.379 -0.1134 -0.0064  0.1453
   36POPX   GL1  423  23.828  16.465   6.997 -0.1518  0.2350 -0.3319
   36POPX   GL2  424  24.087  16.599   7.096  0.0953  0.0669 -0.2544
   36POPX   C1A  425  23.687  16.465   6.642  0.2524 -0.1553  0.1592
   36POPX   D2A  426  23.713  16.446   6.143  0.0779  0.2163  0.1361
   36POPX   C3A  427  23.496  16.163   5.898  0.0223  0.1827 -0.2090
   36POPX   C4A  428  23.607  15.819   5.575 -0.0278 -0.2717 -0.0948
   36POPX   C1B  429  24.268  16.701   6.759 -0.0487 -0.0595  0.3219
   36POPX   C2B  430  24.318  16.851   6.327 -0.0440  0.1894 -0.2430
   36POPX   C3B  431  24.458  17.051   5.940 -0.1257  0.1626 -0.4676
   36POPX   C4B  432  24.397  17.046   5.474  0.2374  0.1199 -0.0307
   37POPX   NC3  433  17.568  16.649   7.683  0.4625 -0.1545  0.1695
   37POPX   PO4  434  17.888  16.439   7.625  0.2569  0.0948  0.0032
   37POPX   GL1  435  17.975  16.591   7.314  0.0646  0.0373 -0.0609
   37POPX   GL2  436  17.700  16.675   7.234 -0.1013 -0.1500  0.1734
   37POPX   C1A  437  18.260  16.911   7.279  0.2208  0.1456 -0.1335
   37POPX   D2A  438  18.478  17.357   7.282  0.1183 -0.1297 -0.4485
   37POPX   C3A  439  19.000  17.309   7.294  0.1601  0.2915 -0.2218
   37POPX   C4A  440  19.452  17.371   7.207  0.5323 -0.0451  0.1603
   37POPX   C1B  441  17.761  16.548   6.901 -0.2718  0.0762  0.0417
   37POPX   C2B  442  17.778  16.586   6.483 -0.0448  0.3872 -0.1046
   37POPX   C3B  443  17.870  16.618   6.035 -0.1188  0.0668  0.0378
   37POPX   C4B  444  18.066  16.280   5.734  0.1456  0.1516  0.1240
   38POPX   NC3  445   3.486  18.126   7.814  0.1412 -0.3030  0.3728
   38POPX   PO4  446   3.502  18.490   7.700  0.1384 -0.2159  0.1011
   38POPX   GL1  447   3.374  18.492   7.290  0.2595 -0.2054  0.2775
   38POPX   GL2  448   3.264  18.743   7.265 -0.2767 -0.0561 -0.0547
   38POPX   C1A  449   3.199  18.498   6.845 -0.1643 -0.2084  0.0514
   38POPX   D2A  450   3.172  18.172   6.441  0.0418 -0.2872 -0.0285
   38POPX   C3A  451   3.154  18.253   5.997 -0.0871  0.0052  0.3320
   38POPX   C4A  452   3.260  17.885   5.709  0.2407  0.2418  0.0266
   38POPX   C1B  453   3.215  18.925   6.989 -0.2780 -0.0650  0.2514
   38POPX   C2B  454   3.165  18.924   6.577 -0.0629  0.1051 -0.2513
   38POPX   C3B  455   3.127  18.766   6.083 -0.3075 -0.2870 -0.0806
   38POPX   C4B  456   3.323  18.774   5.546  0.2201 -0.1355 -0.1163
   39POPX   NC3  457  16.670   4.962   7.585 -0.3860  0.0765 -0.1425
   39POPX   PO4  458  17.024   4.839   7.449 -0.0368 -0.0726  0.2725
   39POPX   GL1  459  16.938   4.785   7.002 -0.0486  0.1158  0.0348
   39POPX   GL2  460  16.845   5.086   7.033 -0.0751  0.0107 -0.0860
   39POPX   C1A  461  17.067   4.686   6.607 -0.0897  0.5591  0.0974
   39POPX   D2A  462  17.208   5.045   6.380 -0.3689  0.0583  0.1285
   39POPX   C3A  463  17.408   4.932   5.972  0.2659 -0.0900  0.3334
   39POPX   C4A  464  17.621   4.977   5.551 -0.0563  0.3494  0.3042
   39POPX   C1B  465  16.717   5.291   6.834  0.1101  0.0970  0.4566
   39POPX   C2B  466  16.703   5.205   6.405  0.0042 -0.1861  0.1755
   39POPX   C3B  467  16.468   5.249   5.886 -0.2944 -0.0023  0.3928
   39POPX   C4B  468  16.202   5.531   5.575 -0.2754 -0.2271  0.3029
   40POPX   NC3  469  15.091  11.842   6.928 -0.1128  0.2519  0.2445
   40POPX   PO4  470  15.197  11.456   6.998  0.1537  0.1012  0.0650
   40POPX   GL1  471  15.456  11.168   6.752  0.0794 -0.3055 -0.1813
   40POPX   GL2  472  15.209  10.988   6.733  0.0201 -0.1592  0.0120
   40POPX   C1A  473  15.488  11.316   6.278 -0.2270  0.0525  0.4259
   40POPX   D2A  474  15.599  11.727   6.005  0.1149  0.0194 -0.1784
   40POPX   C3A  475  15.669  11.769   5.503 -0.1177 -0.1341 -0.0492
   40POPX   C4A  476  15.730  11.769   4.996  0.4019  0.3537 -0.0398
   40POPX   C1B  477  15.087  11.118   6.410 -0.0854 -0.0629  0.3251
   40POPX   C2B  478  15.077  11.102   5.978  0.1131  0.2852 -0.0989
   40POPX   C3B  479  15.169  11.046   5.463  0.0231 -0.4047  0.1645
   40POPX   C4B  480  15.060  11.022   4.979  0.1212  0.0231 -0.1510
   41POPX   NC3  481  16.308  11.065   7.447 -0.0848 -0.0511  0.0691
   41POPX   PO4  482  16.022  11.311   7.258 -0.0821  0.0598  0.1281
   41POPX   GL1  483  16.109  11.313   6.885 -0.2048 -0.0276 -0.0953
   41POPX   GL2  484  16.169  11.534   6.793 -0.1483  0.2240 -0.1151
   41POPX   C1A  485  15.912  11.112   6.532 -0.0592  0.0567 -0.0449
   41POPX   D2A  486  15.873  10.992   6.026 -0.0909  0.1181  0.2398
   41POPX   C3A  487  15.611  11.286   5.749 -0.3054 -0.0250  0.1462
   41POPX   C4A  488  15.205  11.521   5.658 -0.1664 -0.3235  0.1509
   41POPX   C1B  489  16.303  11.660   6.527  0.0340 -0.2263 -0.0588
   41POPX   C2B  490  16.479  11.660   6.140  0.0187  0.0831 -0.2101
   41POPX   C3B  491  16.726  11.700   5.699  0.0622  0.0631 -0.1883
   41POPX   C4B  492  17.082  11.537   5.439 -0.1809  0.1403 -0.0423
   42POPX   NC3  493  24.280  22.289   7.505  0.0206  0.0938  0.1439
   42POPX   PO4  494  24.138  21.862   7.512 -0.6148 -0.0421  0.1737
   42POPX   GL1  495  24.116  21.682   7.182 -0.1969  0.2865 -0.2051
   42POPX   GL2  496  23.955  21.809   6.992  0.1846 -0.0699 -0.0407
   42POPX   C1A  497  24.455  21.574   6.962  0.3941  0.0439 -0.0886
   42POPX   D2A  498  24.801  21.797   6.643 -0.0432 -0.5716  0.0797
   42POPX   C3A  499  25.139  21.480   6.426 -0.1560  0.1064 -0.0175
   42POPX   C4A  500  24.922  21.450   6.003 -0.0282 -0.0331 -0.1253
   42POPX   C1B  501  23.784  21.727   6.681  0.0577  0.0175 -0.0664
   42POPX   C2B  502  23.703  21.674   6.291  0.2113  0.3290 -0.0577
   42POPX   C3B  503  23.504  21.761   5.882  0.3293 -0.1322 -0.1258
   42POPX   C4B  504  23.360  21.558   5.505 -0.0717  0.0829 -0.3805
   43POPX   NC3  505  13.665  13.560   7.356 -0.2214 -0.0660 -0.0910
   43POPX   PO4  506  14.012  13.729   7.505 -0.0086 -0.1332  0.2488
   43POPX   GL1  507  14.299  13.504   7.235 -0.1768  0.1191  0.4956
   43POPX   GL2  508  14.146  13.586   7.024  0.0430  0.2047 -0.0420
   43POPX   C1A  509  14.597  13.432   6.870  0.0741 -0.1503  0.3590
   43POPX   D2A  510  14.806  13.696   6.543  0.0443  0.0899 -0.1436
   43POPX   C3A  511  14.743  13.684   6.021  0.0990 -0.0672 -0.0602
   43POPX   C4A  512  14.554  13.853   5.650 -0.0763 -0.1998  0.2684
   43POPX   C1B  513  14.234  13.549   6.669  0.1370  0.2321 -0.0066
   43POPX   C2B  514  14.427  13.394   6.364  0.0233  0.1899 -0.1959
   43POPX   C3B  515  14.385  13.301   5.923  0.1126  0.0844  0.1673
   43POPX   C4B  516  14.139  13.167   5.499 -0.1846 -0.0709  0.2915
   44POPX   NC3  517  10.112  19.272   7.364  0.1350  0.0884  0.0130
   44POPX   PO4  518  10.275  19.025   7.156 -0.3164  0.0271  0.1954
   44POPX   GL1  519  10.412  19.255   6.902  0.1746  0.0861  0.0038
   44POPX   GL2  520  10.591  19.086   6.725  0.1924 -0.0744  0.2070
   44POPX   C1A  521  10.272  19.412   6.521 -0.0281 -0.3382 -0.2374
   44POPX   D2A  522  10.140  19.450   5.997 -0.2784 -0.3958  0.0433
   44POPX   C3A  523  10.182  19.252   5.554  0.4466  0.1745  0.3562
   44POPX   C4A  524  10.305  18.899   5.255  0.0856  0.1122  0.1041
   44POPX   C1B  525  10.693  19.204   6.396  0.5343 -0.0077  0.2413
   44POPX   C2B  526  10.633  19.287   6.039  0.2767  0.0040  0.0388
   44POPX   C3B  527  10.685  19.433   5.563 -0.1013 -0.4830  0.1304
   44POPX   C4B  528  10.493  19.359   5.126 -0.0576 -0.2817  0.2076
   45POPX   NC3  529   0.507  16.259   7.291 -0.0159 -0.0710  0.0410
   45POPX   PO4  530   0.140  16.133   7.460  0.0966 -0.2743 -0.0560
   45POPX   GL1  531  -0.223  16.304   7.273 -0.0603 -0.3953 -0.2035
   45POPX   GL2  532  -0.009  16.416   7.078 -0.4001 -0.3276  0.0761
   45POPX   C1A  533  -0.388  16.139   6.962 -0.2126  0.1037  0.3674
   45POPX   D2A  534  -0.288  16.150   6.478  0.5407 -0.0826  0.0000
   45POPX   C3A  535  -0.055  16.100   6.132 -0.0417  0.0147  0.5869
   45POPX   C4A  536   0.225  16.200   5.679 -0.3682  0.0249  0.1481
   45POPX   C1B  537   0.164  16.273   6.789 -0.2622 -0.1940 -0.0318
   45POPX   C2B  538   0.333  16.222   6.431 -0.1454 -0.1188  0.5233
   45POPX   C3B  539   0.459  15.953   6.061 -0.3865  0.1597 -0.0417
   45POPX   C4B  540   0.709  15.829   5.635  0.1793 -0.0382  0.1962
   46POPX   NC3  541  27.105  13.311   8.149  0.2045 -0.1248  0.1589
   46POPX   PO4  542  27.027  13.450   7.770 -0.1005  0.1120 -0.1268
   46POPX   GL1  543  26.863  13.208   7.545  0.1196  0.2113 -0.1590
   46POPX   GL2  544  26.594  13.150   7.646  0.1365  0.1120 -0.2491
   46POPX   C1A  545  26.802  12.945   7.249 -0.2655 -0.0231  0.2165
   46POPX   D2A  546  26.855  12.973   6.764 -0.0737  0.2267 -0.0482
   46POPX   C3A  547  26.554  13.028   6.435 -0.2490 -0.0520  0.1310
   46POPX   C4A  548  26.404  12.882   5.979 -0.3265  0.1713 -0.2314
   46POPX   C1B  549  26.404  12.888   7.488  0.0525  0.6420 -0.2070
   46POPX   C2B  550  26.255  12.660   7.197  0.0193 -0.1503  0.2923
   46POPX   C3B  551  26.090  12.324   6.907 -0.0921  0.2847 -0.1954
   46POPX   C4B  552  26.021  12.120   6.460 -0.0523 -0.0725 -0.2656
   47POPX   NC3  553  11.549  14.868   7.665 -0.2078  0.1058  0.1843
   47POPX   PO4  554  11.834  15.162   7.671  0.0800 -0.4281 -0.0507
   47POPX   GL1  555  11.803  15.274   7.321  0.1060  0.2700 -0.1678
   47POPX   GL2  556  12.074  15.195   7.279  0.1588 -0.0352 -0.2236
   47POPX   C1A  557  11.627  15.536   6.998 -0.2593  0.4616 -0.1427
   47POPX   D2A  558  11.507  15.671   6.541  0.1718  0.0173  0.1594
   47POPX   C3A  559  11.654  15.710   6.140  0.0417  0.1792 -0.2004
   47POPX   C4A  560  11.618  15.782   5.693 -0.0635 -0.2110  0.0352
   47POPX   C1B  561  12.110  15.186   6.892  0.4678 -0.1474  0.0672
   47POPX   C2B  562  12.135  15.283   6.526  0.3470  0.0075  0.1883
   47POPX   C3B  563  12.027  15.388   6.057  0.1776 -0.1165 -0.1364
   47POPX   C4B  564  12.094  15.560   5.614 -0.0562 -0.0348 -0.2280
   48POPX   NC3  565   9.621  21.874   7.188 -0.3750 -0.0688  0.1371
   48POPX   PO4  566   9.604  21.560   7.447  0.0048 -0.0934  0.0223
   48POPX   GL1  567   9.727  21.186   7.034  0.0664 -0.2102  0.0123
   48POPX   GL2  568   9.498  21.328   7.023  0.0427  0.0488 -0.1040
   48POPX   C1A  569   9.900  21.306   6.701 -0.1661 -0.3133  0.0492
   48POPX   D2A  570   9.980  21.397   6.211  0.1193 -0.0006 -0.0503
   48POPX   C3A  571   9.912  21.348   5.779  0.3799 -0.1153  0.0591
   48POPX   C4A  572   9.737  21.142   5.385 -0.2371  0.1535  0.0849
   48POPX   C1B  573   9.433  21.400   6.678  0.0742 -0.1443 -0.1786
   48POPX   C2B  574   9.278  21.247   6.310 -0.0409  0.1194 -0.0754
   48POPX   C3B  575   8.948  21.402   5.967  0.1061 -0.4893 -0.0676
   48POPX   C4B  576   8.562  21.733   5.810  0.3173  0.4045  0.3432
   49POPX   NC3  577  12.152  21.426   7.155  0.0649  0.1082  0.1612
   49POPX   PO4  578  12.040  21.759   7.408 -0.0769  0.1000 -0.2832
   49POPX   GL1  579  11.829  21.976   7.259  0.1771  0.2103 -0.1441
   49POPX   GL2  580  12.042  22.150   7.127 -0.0508  0.2055  0.2316
   49POPX   C1A  581  11.522  21.855   6.955 -0.1120 -0.1867  0.1226
   49POPX   D2A  582  11.210  21.613   6.835  0.2533  0.1055 -0.0929
   49POPX   C3A  583  11.035  21.495   6.388  0.3656  0.1067  0.1350
   49POPX   C4A  584  10.851  21.534   5.955 -0.1081  0.1554 -0.0547
   49POPX   C1B  585  12.014  22.200   6.754  0.0256  0.0973 -0.2506
   49POPX   C2B  586  12.049  22.295   6.342 -0.4320  0.3783 -0.2834
   49POPX   C3B  587  12.101  22.259   5.892  0.0328 -0.2706  0.0391
   49POPX   C4B  588  11.992  22.187   5.353  0.1474 -0.2696 -0.0363
   50POPX   NC3  589  22.565   4.217   8.063  0.1830 -0.1790 -0.1664
   50POPX   PO4  590  22.339   4.521   7.910 -0.2317  0.0775 -0.2328
   50POPX   GL1  591  22.297   4.683   7.485  0.1740 -0.1349 -0.2967
   50POPX   GL2  592  22.530   4.595   7.450 -0.2031 -0.4257 -0.1405
   50POPX   C1A  593  22.061   4.606   7.090 -0.3444 -0.2071  0.0278
   50POPX   D2A  594  21.839   4.947   6.773 -0.0553 -0.0522  0.1931
   50POPX   C3A  595  21.911   4.958   6.279 -0.0681 -0.0537 -0.1638
   50POPX   C4A  596  21.699   5.171   5.926  0.0205 -0.3191  0.1166
   50POPX   C1B  597  22.724   4.651   7.128 -0.3399  0.2889  0.2143
   50POPX   C2B  598  22.768   4.675   6.677 -0.2398 -0.2702 -0.0840
   50POPX   C3B  599  22.778   4.719   6.250 -0.1559 -0.1677  0.3248
   50POPX   C4B  600  22.794   4.568   5.796 -0.0806  0.2872 -0.0868
   51POPX   NC3  601  15.903   9.241   7.403 -0.1194 -0.0133 -0.2368
   51POPX   PO4  602  15.599   9.479   7.436  0.0281 -0.0394 -0.0137
   51POPX   GL1  603  15.454   9.254   7.152  0.4465 -0.8301  0.2906
   51POPX   GL2  604  15.640   9.045   7.085  0.4191  0.1118 -0.0295
   51POPX   C1A  605  15.155   9.432   6.867  0.0734 -0.0815 -0.0136
   51POPX   D2A  606  15.250   9.618   6.443  0.0205  0.2561 -0.0354
   51POPX   C3A  607  15.301   9.341   5.980 -0.0194  0.5351  0.4224
   51POPX   C4A  608  15.466   9.269   5.525  0.1464 -0.2055  0.2237
   51POPX   C1B  609  15.664   8.922   6.749 -0.0207 -0.0239 -0.3237
   51POPX   C2B  610  15.729   8.864   6.346 -0.2901 -0.1439  0.0705
   51POPX   C3B  611  15.782   8.964   5.883  0.2536 -0.3033  0.1834
   51POPX   C4B  612  15.966   9.200   5.516 -0.1582 -0.0209  0.0501
   52POPX   NC3  613  20.332   6.685   7.418  0.1409  0.2970 -0.0839
   52POPX   PO4  614  20.372   6.985   7.143  0.0160  0.0063 -0.0938
   52POPX   GL1  615  20.377   7.026   6.704  0.2652 -0.1203  0.0772
   52POPX   GL2  616  20.312   7.246   6.695  0.2062  0.0442  0.1671
   52POPX   C1A  617  20.629   6.952   6.288 -0.1248  0.0480  0.2654
   52POPX   D2A  618  20.750   7.026   5.786  0.0936 -0.0336 -0.0709
   52POPX   C3A  619  21.090   6.706   5.508  0.3555  0.0339  0.0101
   52POPX   C4A  620  21.485   6.539   5.197  0.1261 -0.1400 -0.2199
   52POPX   C1B  621  20.570   7.462   6.589  0.0300 -0.2285  0.0180
   52POPX   C2B  622  20.524   7.475   6.191 -0.2386  0.0713  0.1254
   52POPX   C3B  623  20.722   7.581   5.778  0.1426  0.1097 -0.0855
   52POPX   C4B  624  21.012   7.675   5.398 -0.1206 -0.0522 -0.0691
   53POPX   NC3  625  22.499   7.305   7.970 -0.1001 -0.0058  0.2788
   53POPX   PO4  626  22.351   6.998   7.775 -0.0666 -0.3392  0.1791
   53POPX   GL1  627  22.490   6.937   7.436 -0.1770  0.0347  0.0995
   53POPX   GL2  628  22.679   6.967   7.315 -0.3721  0.2893  0.2027
   53POPX   C1A  629  22.385   6.676   7.083 -0.1264 -0.1710  0.1057
   53POPX   D2A  630  22.255   6.471   6.668 -0.0975  0.1371  0.0318
   53POPX   C3A  631  22.344   6.249   6.267  0.1211  0.1942  0.0462
   53POPX   C4A  632  22.798   6.114   6.122 -0.3482 -0.1002  0.2466
   53POPX   C1B  633  22.796   6.882   6.994  0.0553  0.1489 -0.1029
   53POPX   C2B  634  23.033   6.894   6.650 -0.3830 -0.1284  0.1529
   53POPX   C3B  635  23.269   6.940   6.328  0.2550 -0.0054 -0.1325
   53POPX   C4B  636  23.601   6.948   5.947  0.1194 -0.1717 -0.1686
   54POPX   NC3  637  16.394  12.699   7.345  0.0865 -0.0209 -0.0489
   54POPX   PO4  638  16.484  12.340   7.228  0.1677 -0.1929  0.1690
   54POPX   GL1  639  16.650  12.361   6.771  0.0573  0.0074 -0.0557
   54POPX   GL2  640  16.752  12.087   6.810 -0.2971 -0.0842  0.1197
   54POPX   C1A  641  16.551  12.511   6.423 -0.2291 -0.0664 -0.3544
   54POPX   D2A  642  16.731  12.708   5.972 -0.4444  0.0694  0.2484
   54POPX   C3A  643  16.709  12.661   5.555 -0.1251 -0.0854 -0.0193
   54POPX   C4A  644  16.636  12.747   5.074  0.1127 -0.0663  0.0542
   54POPX   C1B  645  16.607  11.969   6.507  0.1937 -0.2200 -0.1705
   54POPX   C2B  646  16.694  12.097   6.121  0.0280 -0.0041 -0.1273
   54POPX   C3B  647  16.628  12.166   5.677 -0.1695 -0.3379  0.0784
   54POPX   C4B  648  16.903  12.309   5.259  0.0227 -0.1613  0.0563
   55POPX   NC3  649  10.219  17.485   7.689 -0.3123 -0.1166 -0.5381
   55POPX   PO4  650   9.899  17.221   7.747  0.3242 -0.0057 -0.1870
   55POPX   GL1  651   9.502  17.269   7.479  0.4690 -0.3754 -0.1015
   55POPX   GL2  652   9.641  17.035   7.224 -0.1244 -0.0137 -0.1238
   55POPX   C1A  653   9.489  17.644   7.265  0.0191  0.2740  0.1170
   55POPX   D2A  654   9.358  17.623   6.754 -0.2420  0.0323  0.1022
   55POPX   C3A  655   9.333  17.805   6.320 -0.1888  0.2521  0.1909
   55POPX   C4A  656   9.384  17.868   5.847 -0.1118  0.2899  0.1516
   55POPX   C1B  657   9.836  17.022   6.876  0.2151  0.1576 -0.1200
   55POPX   C2B  658   9.892  17.042   6.470 -0.1212 -0.0495 -0.1831
   55POPX   C3B  659   9.930  17.046   5.957 -0.1014 -0.1526 -0.0849
   55POPX   C4B  660   9.813  16.900   5.498 -0.0607  0.1124 -0.1401
   56POPX   NC3  661  27.015  18.931   8.145 -0.2020  0.1697  0.1741
   56POPX   PO4  662  27.268  19.146   7.935 -0.1769 -0.1118 -0.1717
   56POPX   GL1  663  27.228  19.342   7.570 -0.2088  0.0625  0.1310
   56POPX   GL2  664  27.445  19.150   7.503  0.0198 -0.2837  0.0178
   56POPX   C1A  665  27.054  19.447   7.166 -0.0509 -0.1434  0.1776
   56POPX   D2A  666  26.888  19.663   6.719 -0.0169 -0.0456  0.0354
   56POPX   C3A  667  27.067  19.538   6.242 -0.0927  0.2024 -0.3466
   56POPX   C4A  668  27.313  19.412   5.871 -0.0890 -0.0895  0.0949
   56POPX   C1B  669  27.369  19.136   7.099 -0.3293 -0.4263 -0.0383
   56POPX   C2B  670  27.530  18.875   6.785  0.0221  0.2462  0.2502
   56POPX   C3B  671  27.466  18.691   6.426 -0.2542  0.1684  0.0179
   56POPX   C4B  672  27.093  18.712   6.065 -0.3376 -0.1706  0.3857
   57POPX   NC3  673   4.580  21.843   7.680  0.0017  0.0292  0.0490
   57POPX   PO4  674   4.291  21.796   7.406  0.0519 -0.1906 -0.5021
   57POPX   GL1  675   4.461  21.762   7.049 -0.3511 -0.0894  0.1876
   57POPX   GL2  676   4.330  21.468   7.018  0.0347 -0.0192  0.2479
   57POPX   C1A  677   4.522  22.157   6.769  0.0149  0.0232  0.0985
   57POPX   D2A  678   4.570  22.568   6.595 -0.1610  0.0780 -0.0910
   57POPX   C3A  679   4.285  22.741   6.281 -0.0354 -0.0158 -0.0578
   57POPX   C4A  680   4.432  22.819   5.804  0.0895  0.3158 -0.1506
   57POPX   C1B  681   4.305  21.425   6.633 -0.0174  0.0925  0.0799
   57POPX   C2B  682   4.312  21.291   6.262  0.0504  0.0285  0.1554
   57POPX   C3B  683   4.670  21.363   5.954  0.3037  0.1567 -0.1959
   57POPX   C4B  684   4.790  21.297   5.499  0.0715  0.0544  0.3115
   58POPX   NC3  685  22.238   1.506   7.786  0.0222  0.1378  0.0371
   58POPX   PO4  686  22.280   1.912   7.849  0.0193  0.0110  0.4383
   58POPX   GL1  687  22.508   2.185   7.588 -0.0875  0.0990 -0.4214
   58POPX   GL2  688  22.646   1.898   7.491 -0.4753  0.0884  0.1765
   58POPX   C1A  689  22.378   2.569   7.424 -0.1706  0.0301  0.0083
   58POPX   D2A  690  21.992   2.857   7.265  0.1356 -0.0931  0.1221
   58POPX   C3A  691  21.958   2.890   6.743 -0.3048 -0.1694 -0.0680
   58POPX   C4A  692  22.366   2.900   6.529  0.1224  0.0101 -0.6042
   58POPX   C1B  693  22.716   1.795   7.142 -0.0203  0.1818  0.0267
   58POPX   C2B  694  22.776   1.816   6.722 -0.2854  0.1893  0.0263
   58POPX   C3B  695  22.773   2.040   6.400 -0.1505 -0.1440 -0.0916
   58POPX   C4B  696  22.826   2.236   5.937  0.0875  0.0907  0.0076
   59POPX   NC3  697  25.487   8.112   7.753 -0.0962 -0.0192 -0.0960
   59POPX   PO4  698  25.677   8.511   7.782 -0.0710  0.4879  0.0132
   59POPX   GL1  699  25.661   8.469   7.446  0.1799  0.1030  0.2459
   59POPX   GL2  700  25.920   8.495   7.348 -0.0109  0.0431 -0.1393
   59POPX   C1A  701  25.498   8.753   7.193 -0.1619  0.0902  0.3166
   59POPX   D2A  702  25.181   8.919   6.846 -0.1588  0.0505  0.1251
   59POPX   C3A  703  25.107   8.994   6.363  0.1771 -0.1850 -0.1644
   59POPX   C4A  704  24.937   8.830   5.891  0.1457  0.0673 -0.5083
   59POPX   C1B  705  25.782   8.367   7.023 -0.0051  0.1302 -0.4730
   59POPX   C2B  706  25.763   8.312   6.618  0.1367 -0.0092  0.2077
   59POPX   C3B  707  25.656   8.235   6.171  0.1878 -0.3297  0.1654
   59POPX   C4B  708  25.625   8.151   5.699 -0.3079  0.0180  0.0032
   60POPX   NC3  709  25.406  26.122   7.851 -0.2077  0.1246 -0.1762
   60POPX   PO4  710  25.349  25.742   7.716  0.0764  0.0670 -0.3125
   60POPX   GL1  711  25.473  25.753   7.279  0.4151  0.1922  0.1515
   60POPX   GL2  712  25.481  26.060   7.415  0.1273  0.2117 -0.2250
   60POPX   C1A  713  25.362  25.551   6.947  0.1276 -0.1572  0.1471
   60POPX   D2A  714  25.750  25.258   6.881 -0.2125  0.1116  0.2935
   60POPX   C3A  715  25.778  25.352   6.421  0.2455  0.2787  0.0880
   60POPX   C4A  716  25.835  25.406   5.921 -0.1223  0.3712  0.0323
   60POPX   C1B  717  25.611  26.228   7.063 -0.1260 -0.4086 -0.0281
   60POPX   C2B  718  25.681  26.181   6.680  0.2944 -0.1906 -0.1675
   60POPX   C3B  719  25.665  26.200   6.221  0.2834 -0.1140  0.1291
   60POPX   C4B  720  25.698  26.188   5.758 -0.0510  0.1857 -0.2451
   61POPX   NC3  721   7.991   9.450   7.878 -0.3278  0.0133 -0.0402
   61POPX   PO4  722   7.850   9.197   7.560  0.3723  0.0729  0.0031
   61POPX   GL1  723   7.608   9.108   7.198 -0.2655 -0.2785  0.2185
   61POPX   GL2  724   7.875   8.929   7.068 -0.0414 -0.1616  0.0100
   61POPX   C1A  725   7.562   9.424   6.825 -0.1184 -0.4527 -0.1246
   61POPX   D2A  726   7.826   9.670   6.466 -0.0339  0.2058 -0.0634
   61POPX   C3A  727   7.895   9.994   6.149 -0.3487  0.2136  0.0385
   61POPX   C4A  728   7.727  10.296   5.810 -0.0553  0.0828  0.0090
   61POPX   C1B  729   7.836   8.736   6.790 -0.0912  0.3879  0.0596
   61POPX   C2B  730   7.919   8.374   6.623 -0.1206  0.1443 -0.1687
   61POPX   C3B  731   7.841   8.106   6.215 -0.1862  0.2388 -0.0656
   61POPX   C4B  732   7.587   7.890   5.832  0.0237  0.0659 -0.0473
   62POPX   NC3  733  25.897   0.470   7.558  0.1027  0.2770 -0.1166
   62POPX   PO4  734  25.692   0.809   7.559 -0.2111  0.2122 -0.0806
   62POPX   GL1  735  25.586   0.831   7.199 -0.1248 -0.0449 -0.3477
   62POPX   GL2  736  25.763   0.653   7.083 -0.0128 -0.0225  0.0702
   62POPX   C1A  737  25.359   1.039   6.842  0.1913 -0.2703 -0.0179
   62POPX   D2A  738  25.371   1.055   6.381 -0.2015 -0.1357 -0.2904
   62POPX   C3A  739  25.316   1.315   6.055 -0.1959 -0.1754  0.0443
   62POPX   C4A  740  25.458   1.562   5.632  0.1033  0.1091 -0.2680
   62POPX   C1B  741  25.692   0.718   6.718 -0.0039  0.2506 -0.3317
   62POPX   C2B  742  25.679   0.723   6.291  0.1115  0.0050  0.1676
   62POPX   C3B  743  25.763   0.627   5.876 -0.1420  0.3359  0.3704
   62POPX   C4B  744  25.833   0.499   5.390  0.0950  0.1145 -0.0335
   63POPX   NC3  745   6.492   1.564   7.976 -0.0267 -0.2282  0.0008
   63POPX   PO4  746   6.607   1.673   7.653 -0.1962  0.4324 -0.2152
   63POPX   GL1  747   6.481   1.920   7.380  0.2229  0.1435 -0.1509
   63POPX   GL2  748   6.603   1.758   7.191  0.1083 -0.1085 -0.2363
   63POPX   C1A  749   6.058   2.034   7.332 -0.4499  0.1030 -0.0498
   63POPX   D2A  750   5.565   1.999   7.215 -0.0398 -0.2361 -0.1249
   63POPX   C3A  751   5.388   2.059   6.775 -0.2830  0.2978 -0.0390
   63POPX   C4A  752   5.249   2.399   6.413 -0.1443 -0.1128  0.4760
   63POPX   C1B  753   6.606   1.845   6.836 -0.7064 -0.1167  0.4404
   63POPX   C2B  754   6.520   1.767   6.446 -0.1519 -0.4596 -0.0294
   63POPX   C3B  755   6.392   1.635   5.974  0.1320  0.1034  0.1746
   63POPX   C4B  756   6.197   1.299   5.784 -0.0461 -0.0971 -0.2412
   64POPX   NC3  757   2.430   4.208   8.042  0.2352  0.1225 -0.1157
   64POPX   PO4  758   2.228   4.452   7.786 -0.3504 -0.1329  0.2663
   64POPX   GL1  759   2.034   4.532   7.391  0.0641 -0.0028 -0.4779
   64POPX   GL2  760   1.838   4.380   7.453 -0.2663  0.3117  0.0951
   64POPX   C1A  761   1.859   4.750   7.111 -0.0392 -0.1500 -0.2195
   64POPX   D2A  762   1.665   4.832   6.705 -0.3887  0.0318  0.0867
   64POPX   C3A  763   1.387   5.032   6.403  0.0200  0.1504  0.0865
   64POPX   C4A  764   1.313   5.173   5.955 -0.0186 -0.0049  0.2630
   64POPX   C1B  765   1.708   4.298   7.162  0.0133 -0.1532  0.1283
   64POPX   C2B  766   1.716   4.335   6.691 -0.0544  0.0989  0.0634
   64POPX   C3B  767   1.545   4.577   6.251  0.0792  0.1834 -0.7001
   64POPX   C4B  768   1.085   4.620   6.175 -0.3238  0.1371  0.1919
   65POPX   NC3  769  19.191  18.268   7.568  0.2576  0.0083  0.0241
   65POPX   PO4  770  18.972  17.974   7.659 -0.4598 -0.1541 -0.3494
   65POPX   GL1  771  18.806  17.837   7.241 -0.0430 -0.4390 -0.0164
   65POPX   GL2  772  19.066  17.747   7.219  0.2296  0.2164 -0.0874
   65POPX   C1A  773  18.607  17.595   6.902  0.2679  0.0099 -0.1565
   65POPX   D2A  774  18.325  17.232   6.830 -0.1934 -0.1771  0.3079
   65POPX   C3A  775  18.255  16.788   6.669  0.0412 -0.1954 -0.1407
   65POPX   C4A  776  18.237  16.380   6.892  0.0161 -0.2791 -0.1527
   65POPX   C1B  777  19.058  17.597   6.848 -0.0518  0.3571  0.2810
   65POPX   C2B  778  19.167  17.587   6.442 -0.1058  0.0543  0.0623
   65POPX   C3B  779  19.393  17.840   6.089 -0.3650 -0.0253 -0.0007
   65POPX   C4B  780  19.321  17.601   5.589  0.0594 -0.0008 -0.3948
   66POPX   NC3  781  20.555  17.681   7.551  0.1422 -0.0472 -0.1924
   66POPX   PO4  782  20.364  17.900   7.313  0.0320 -0.1860  0.2752
   66POPX   GL1  783  20.276  17.693   6.907  0.3168 -0.0922  0.5614
   66POPX   GL2  784  20.270  17.471   7.028  0.3005 -0.0173 -0.2777
   66POPX   C1A  785  20.046  17.868   6.605 -0.2495 -0.2281 -0.1445
   66POPX   D2A  786  19.904  17.898   6.103  0.0765  0.4157  0.1505
   66POPX   C3A  787  19.924  18.256   5.856 -0.2984 -0.0912 -0.0270
   66POPX   C4A  788  19.915  18.415   5.424  0.1871  0.1746 -0.3200
   66POPX   C1B  789  19.929  17.299   7.004 -0.0639  0.0088  0.2414
   66POPX   C2B  790  19.635  17.359   6.700  0.2126  0.0231 -0.1744
   66POPX   C3B  791  19.549  17.261   6.217 -0.2786  0.0853  0.3211
   66POPX   C4B  792  19.328  17.144   5.842  0.0089  0.0403 -0.1033
   67POPX   NC3  793  12.177  18.987   7.904  0.0994  0.1526  0.2872
   67POPX   PO4  794  12.482  19.170   7.667  0.0914 -0.0595  0.0190
   67POPX   GL1  795  12.483  19.224   7.268  0.0675  0.3391  0.1105
   67POPX   GL2  796  12.669  19.006   7.269  0.0130  0.0951  0.0726
   67POPX   C1A  797  12.466  19.340   6.867  0.1275  0.0531  0.0412
   67POPX   D2A  798  12.291  19.703   6.634  0.0184 -0.0140  0.0751
   67POPX   C3A  799  11.927  19.621   6.427 -0.0981  0.1482 -0.2329
   67POPX   C4A  800  11.605  19.255   6.522 -0.0552  0.1202 -0.3066
   67POPX   C1B  801  12.658  18.939   6.903 -0.5107  0.0773 -0.1449
   67POPX   C2B  802  12.537  18.860   6.556  0.2315  0.0950  0.2367
   67POPX   C3B  803  12.582  19.005   6.078  0.0600  0.2341  0.1312
   67POPX   C4B  804  13.031  19.031   5.943  0.0082 -0.0592 -0.0306
   68POPX   NC3  805   1.403   0.068   8.011  0.1667  0.1628 -0.0066
   68POPX   PO4  806   1.544   0.175   7.660  0.1434  0.2511 -0.1112
   68POPX   GL1  807   1.638   0.102   7.201  0.0525  0.1763  0.1837
   68POPX   GL2  808   1.506  -0.148   7.214  0.0902 -0.2674  0.3354
   68POPX   C1A  809   2.018  -0.095   6.958 -0.1509 -0.2097 -0.4002
   68POPX   D2A  810   2.066  -0.136   6.531 -0.3960  0.0287  0.0114
   68POPX   C3A  811   1.992  -0.328   6.045  0.1863 -0.1154 -0.0118
   68POPX   C4A  812   1.951  -0.198   5.542  0.0961  0.0525  0.4207
   68POPX   C1B  813   1.382  -0.389   6.889 -0.3049 -0.4293 -0.0938
   68POPX   C2B  814   1.320  -0.501   6.516 -0.0626 -0.2779  0.0791
   68POPX   C3B  815   1.474  -0.646   6.077 -0.0752  0.0715  0.1874
   68POPX   C4B  816   1.752  -0.703   5.654 -0.3518  0.1671 -0.0481
   69POPX   NC3  817  13.347  21.507   7.548 -0.3120 -0.0881 -0.0438
   69POPX   PO4  818  13.654  21.226   7.525  0.0529  0.0865  0.2746
   69POPX   GL1  819  13.615  21.025   7.218  0.0760 -0.0074  0.0051
   69POPX   GL2  820  13.295  21.133   7.204  0.0046 -0.3371 -0.2382
   69POPX   C1A  821  13.861  21.181   6.871 -0.3285  0.2768 -0.1287
   69POPX   D2A  822  13.972  21.148   6.402 -0.0660  0.1042 -0.0027
   69POPX   C3A  823  13.924  20.996   5.964  0.1612  0.0795 -0.1414
   69POPX   C4A  824  14.031  21.002   5.491  0.0985 -0.0178  0.0498
   69POPX   C1B  825  13.203  21.228   6.857 -0.3294  0.1071 -0.0999
   69POPX   C2B  826  13.172  21.180   6.455  0.0196 -0.0184  0.0414
   69POPX   C3B  827  12.980  21.058   5.956 -0.0404  0.1402 -0.1149
   69POPX   C4B  828  12.713  21.266   5.670  0.1943  0.2215 -0.1077
   70POPX   NC3  829   5.630   2.769   7.233  0.0996  0.3394 -0.2188
   70POPX   PO4  830   5.422   2.989   7.475  0.1753 -0.3146 -0.0289
   70POPX   GL1  831   5.256   3.008   7.079  0.1591 -0.1896 -0.3133
   70POPX   GL2  832   5.172   2.713   7.174 -0.3233  0.0789 -0.0602
   70POPX   C1A  833   4.948   3.313   6.778 -0.1922 -0.0445 -0.2652
   70POPX   D2A  834   4.588   3.570   6.523  0.0437  0.0114  0.2849
   70POPX   C3A  835   4.225   3.780   6.334 -0.1986 -0.2690  0.1599
   70POPX   C4A  836   3.868   3.795   6.032 -0.0605 -0.1593  0.2256
   70POPX   C1B  837   5.239   2.454   6.879  0.3254 -0.1997 -0.0072
   70POPX   C2B  838   5.103   2.832   6.701 -0.4508  0.1609 -0.1537
   70POPX   C3B  839   5.048   3.126   6.322 -0.1251 -0.1710  0.2050
   70POPX   C4B  840   4.773   3.432   5.929  0.0335 -0.1535 -0.1784
   71POPX   NC3  841  12.691  12.071   7.638  0.0049  0.0153 -0.3051
   71POPX   PO4  842  12.824  12.446   7.535  0.0056  0.0193 -0.1526
   71POPX   GL1  843  13.097  12.522   7.170 -0.1293  0.1120 -0.3699
   71POPX   GL2  844  13.002  12.225   7.094 -0.1702 -0.1006  0.0446
   71POPX   C1A  845  13.171  12.437   6.655 -0.4031 -0.1531 -0.0308
   71POPX   D2A  846  13.270  12.389   6.113 -0.0609 -0.0046  0.0096
   71POPX   C3A  847  13.365  12.646   5.717  0.0060  0.0145 -0.1789
   71POPX   C4A  848  13.196  13.101   5.544  0.3064  0.0549  0.1195
   71POPX   C1B  849  12.948  12.068   6.757 -0.1815  0.0207 -0.1278
   71POPX   C2B  850  12.853  11.851   6.390  0.2031 -0.0915  0.1484
   71POPX   C3B  851  12.729  11.682   5.919  0.2540 -0.0032 -0.2312
   71POPX   C4B  852  12.514  11.461   5.489 -0.0382 -0.0712  0.2460
   72POPX   NC3  853   7.612  22.936   7.724 -0.0573  0.0388 -0.1266
   72POPX   PO4  854   7.962  22.942   7.938 -0.0640 -0.0552  0.2405
   72POPX   GL1  855   8.115  23.152   7.595  0.0996 -0.3238 -0.1405
   72POPX   GL2  856   7.851  23.322   7.592  0.0017  0.0619  0.0335
   72POPX   C1A  857   8.139  22.966   7.179  0.0377 -0.0530  0.3105
   72POPX   D2A  858   8.227  23.110   6.707  0.2327  0.4718  0.1803
   72POPX   C3A  859   8.120  23.479   6.416  0.2643  0.0322 -0.0898
   72POPX   C4A  860   7.843  23.795   6.604 -0.0216 -0.0137 -0.2000
   72POPX   C1B  861   7.911  23.515   7.295  0.2020 -0.0232  0.1496
   72POPX   C2B  862   8.165  23.500   6.972  0.1693 -0.0392  0.1043
   72POPX   C3B  863   8.511  23.622   6.717 -0.0033 -0.2895  0.1020
   72POPX   C4B  864   8.612  23.524   6.174 -0.0338 -0.0021 -0.1202
   73POPX   NC3  865   1.263   9.681   7.608 -0.0988  0.2543 -0.4743
   73POPX   PO4  866   1.296  10.021   7.459 -0.0743  0.1960 -0.2414
   73POPX   GL1  867   1.261  10.069   7.065 -0.0322  0.0947  0.2312
   73POPX   GL2  868   1.609  10.234   7.155  0.6549  0.2413  0.0139
   73POPX   C1A  869   1.442   9.977   6.678  0.2958 -0.1509 -0.1148
   73POPX   D2A  870   1.559   9.914   6.303  0.1932  0.1476  0.0945
   73POPX   C3A  871   2.026   9.962   6.208 -0.0113  0.3693 -0.1359
   73POPX   C4A  872   2.453  10.069   6.007 -0.1942 -0.1707  0.0739
   73POPX   C1B  873   1.745  10.367   6.868  0.2154 -0.0628 -0.3167
   73POPX   C2B  874   1.728  10.387   6.420  0.0349 -0.0597 -0.0498
   73POPX   C3B  875   1.751  10.459   5.963  0.0492  0.0041  0.0249
   73POPX   C4B  876   2.050  10.222   5.721 -0.0258 -0.0365 -0.1063
   74POPX   NC3  877  16.135  24.875   8.050  0.0948 -0.1538 -0.1616
   74POPX   PO4  878  16.390  24.586   7.917 -0.0444  0.1393 -0.0733
   74POPX   GL1  879  16.472  24.588   7.523 -0.0497 -0.2061  0.4034
   74POPX   GL2  880  16.213  24.721   7.540  0.5207 -0.0705  0.3634
   74POPX   C1A  881  16.601  24.639   7.074  0.1714 -0.0099 -0.0606
   74POPX   D2A  882  16.968  24.653   6.656  0.0099 -0.0862 -0.1466
   74POPX   C3A  883  16.897  24.640   6.227  0.0052 -0.0443 -0.0449
   74POPX   C4A  884  16.915  24.895   5.847 -0.1013 -0.0905 -0.3355
   74POPX   C1B  885  16.132  24.732   7.138 -0.3083 -0.1058  0.0413
   74POPX   C2B  886  16.181  24.752   6.726 -0.0195 -0.2196  0.2748
   74POPX   C3B  887  16.418  24.701   6.306 -0.3445  0.0526  0.3426
   74POPX   C4B  888  16.365  24.699   5.868 -0.1686  0.3353 -0.1664
   75POPX   NC3  889  23.078   7.821   7.775 -0.5706  0.0762 -0.1155
   75POPX   PO4  890  23.016   7.412   7.818 -0.1739 -0.4675  0.4199
   75POPX   GL1  891  23.263   7.174   7.461 -0.1264 -0.0697 -0.1770
   75POPX   GL2  892  23.060   7.402   7.342 -0.0292 -0.3608  0.3847
   75POPX   C1A  893  23.474   6.926   7.115 -0.2183 -0.0405  0.0194
   75POPX   D2A  894  23.603   6.876   6.649 -0.2490  0.2041  0.0895
   75POPX   C3A  895  23.798   7.171   6.378  0.1540  0.1920  0.2345
   75POPX   C4A  896  24.106   7.205   6.009  0.2928 -0.2091  0.1113
   75POPX   C1B  897  23.195   7.435   6.988 -0.1525 -0.1209  0.2835
   75POPX   C2B  898  23.199   7.349   6.635  0.1529 -0.0657 -0.2240
   75POPX   C3B  899  23.221   7.411   6.167  0.0293 -0.0534 -0.1737
   75POPX   C4B  900  23.339   7.553   5.676 -0.2800  0.0974  0.0811
   76POPX   NC3  901  10.914   2.750   7.610 -0.1861 -0.1882  0.1117
   76POPX   PO4  902  10.979   3.098   7.398  0.2672 -0.0361 -0.0049
   76POPX   GL1  903  11.299   3.188   7.124  0.0760 -0.0300 -0.1170
   76POPX   GL2  904  11.199   2.987   6.943  0.0176 -0.1080  0.4125
   76POPX   C1A  905  11.452   3.539   6.931 -0.2048 -0.4396 -0.3445
   76POPX   D2A  906  11.425   3.670   6.443  0.4451 -0.1921 -0.0343
   76POPX   C3A  907  11.369   3.578   6.003  0.0527  0.1394 -0.0624
   76POPX   C4A  908  11.293   3.119   5.818 -0.1035  0.2843  0.0324
   76POPX   C1B  909  11.222   2.898   6.620 -0.5490 -0.3873  0.1128
   76POPX   C2B  910  11.104   2.872   6.221 -0.0034  0.2855  0.0111
   76POPX   C3B  911  10.885   2.819   5.755  0.1326 -0.2761  0.5119
   76POPX   C4B  912  10.612   2.919   5.283 -0.3002  0.0321 -0.0743
   77POPX   NC3  913  25.116  14.327   6.890 -0.0876 -0.0895  0.3595
   77POPX   PO4  914  24.877  14.192   7.169 -0.2265  0.0141 -0.0030
   77POPX   GL1  915  24.887  13.874   6.997  0.1831  0.1663 -0.0561
   77POPX   GL2  916  25.004  13.605   7.183  0.1669 -0.1651 -0.2502
   77POPX   C1A  917  24.762  13.820   6.565 -0.1740 -0.1414 -0.1209
   77POPX   D2A  918  24.837  13.882   6.070 -0.3433 -0.2260  0.4913
   77POPX   C3A  919  25.108  13.609   5.829  0.1142  0.0153 -0.0718
   77POPX   C4A  920  25.175  13.605   5.347  0.2455 -0.2451  0.3541
   77POPX   C1B  921  25.046  13.391   6.888 -0.0904  0.0732  0.0475
   77POPX   C2B  922  24.961  13.246   6.499 -0.0988 -0.2201 -0.3129
   77POPX   C3B  923  24.770  13.271   6.066  0.2472 -0.1408 -0.1251
   77POPX   C4B  924  24.388  13.046   5.823 -0.1897  0.3326  0.1234
   78POPX   NC3  925  15.522  27.020   8.112  0.1482 -0.0310  0.1623
   78POPX   PO4  926  15.318  26.694   8.111 -0.0631  0.3981  0.1091
   78POPX   GL1  927  15.085  26.659   7.808 -0.1364 -0.3128 -0.2639
   78POPX   GL2  928  15.039  26.942   7.810  0.0006 -0.0097 -0.1183
   78POPX   C1A  929  14.921  26.672   7.415 -0.0205 -0.1185  0.2325
   78POPX   D2A  930  14.514  26.699   7.062  0.1779 -0.0705 -0.2968
   78POPX   C3A  931  14.519  26.475   6.632 -0.1123 -0.0098 -0.1227
   78POPX   C4A  932  14.180  26.542   6.306  0.1852 -0.2447  0.3199
   78POPX   C1B  933  15.059  27.085   7.546 -0.4137  0.0919 -0.0389
   78POPX   C2B  934  15.215  27.301   7.220  0.2481 -0.0371  0.0137
   78POPX   C3B  935  15.390  27.379   6.775 -0.2858  0.0195  0.0068
   78POPX   C4B  936  15.453  27.561   6.345 -0.1814 -0.2633 -0.1128
   79POPX   NC3  937  19.687   9.952   7.103  0.0831  0.0174 -0.0318
   79POPX   PO4  938  19.713  10.353   7.179  0.0624  0.0885  0.2632
   79POPX   GL1  939  19.697  10.355   6.839 -0.0068  0.2001  0.1199
   79POPX   GL2  940  19.854  10.585   6.775  0.4013  0.2171  0.2445
   79POPX   C1A  941  19.850  10.122   6.463 -0.0373 -0.3219  0.1076
   79POPX   D2A  942  19.950  10.066   5.958 -0.0832  0.0808 -0.2501
   79POPX   C3A  943  20.335   9.911   6.173  0.3320 -0.3720 -0.1511
   79POPX   C4A  944  20.786   9.761   6.259 -0.1927  0.1291 -0.0976
   79POPX   C1B  945  19.943  10.593   6.434 -0.2214  0.0066  0.0632
   79POPX   C2B  946  20.008  10.703   6.029  0.1205 -0.1723 -0.0860
   79POPX   C3B  947  19.766  10.856   5.604  0.1607 -0.0195  0.0894
   79POPX   C4B  948  19.519  11.292   5.505 -0.2098 -0.0622  0.1850
   80POPX   NC3  949   4.538  19.292   7.914 -0.0006  0.2491 -0.1956
   80POPX   PO4  950   4.699  19.153   7.567  0.1634 -0.5106 -0.0424
   80POPX   GL1  951   4.663  18.941   7.235 -0.3340  0.4186 -0.1454
   80POPX   GL2  952   4.669  19.164   7.085  0.2757 -0.0952 -0.3461
   80POPX   C1A  953   4.299  18.669   7.164 -0.1379 -0.2734 -0.2679
   80POPX   D2A  954   4.152  18.323   6.917 -0.1276  0.1705 -0.3728
   80POPX   C3A  955   4.049  18.188   6.554  0.2335 -0.1310  0.1973
   80POPX   C4A  956   4.041  18.017   6.125  0.0257 -0.0977 -0.1368
   80POPX   C1B  957   4.696  19.023   6.729  0.4656 -0.0483  0.0077
   80POPX   C2B  958   4.697  18.893   6.337 -0.2170  0.1622 -0.2565
   80POPX   C3B  959   4.613  18.816   5.827  0.3299  0.0054 -0.1662
   80POPX   C4B  960   4.342  18.592   5.463  0.2565  0.0859  0.3807
   81POPX   NC3  961  13.345  15.169   7.658 -0.3433  0.1808  0.1182
   81POPX   PO4  962  13.583  14.880   7.866 -0.0222 -0.2150 -0.0215
   81POPX   GL1  963  13.508  14.617   7.608  0.2731  0.1424  0.0233
   81POPX   GL2  964  13.363  14.782   7.400  0.4006 -0.0366  0.0173
   81POPX   C1A  965  13.812  14.522   7.281 -0.4539  0.0381  0.1698
   81POPX   D2A  966  14.047  14.655   6.918 -0.1421 -0.0226 -0.0900
   81POPX   C3A  967  14.008  14.761   6.466  0.0137 -0.0228 -0.0220
   81POPX   C4A  968  13.959  14.989   5.967 -0.0300  0.1720 -0.0434
   81POPX   C1B  969  13.501  14.799   7.025  0.2774 -0.0405  0.2902
   81POPX   C2B  970  13.520  14.809   6.619 -0.1117 -0.0760  0.0092
   81POPX   C3B  971  13.588  14.809   6.157  0.2035 -0.2445 -0.0891
   81POPX   C4B  972  13.550  14.806   5.662  0.1535  0.1351  0.0660
   82POPX   NC3  973  19.921  18.574   7.605  0.1778  0.2774  0.2035
   82POPX   PO4  974  19.718  18.245   7.574 -0.3512 -0.2043  0.0774
   82POPX   GL1  975  19.536  18.412   7.184  0.0889 -0.0087  0.1483
   82POPX   GL2  976  19.395  18.148   7.176 -0.0218  0.3978  0.2004
   82POPX   C1A  977  19.456  18.442   6.791  0.2824 -0.0084 -0.0239
   82POPX   D2A  978  19.375  18.668   6.319  0.0056  0.1116  0.2564
   82POPX   C3A  979  19.629  18.668   5.934  0.1663  0.2107 -0.2738
   82POPX   C4A  980  19.767  18.856   5.482  0.1070  0.0416 -0.2617
   82POPX   C1B  981  19.234  18.061   6.808  0.3191  0.6463  0.2410
   82POPX   C2B  982  19.092  18.103   6.401  0.1753 -0.2153  0.0282
   82POPX   C3B  983  18.896  17.841   5.998  0.1621 -0.0373  0.3241
   82POPX   C4B  984  18.971  18.002   5.600 -0.2124 -0.0171  0.1657
   83POPX   NC3  985  25.678  25.426   7.568  0.1881 -0.1545  0.0149
   83POPX   PO4  986  25.942  25.533   7.261  0.0484 -0.0889 -0.0959
   83POPX   GL1  987  25.764  25.820   6.966 -0.2338 -0.1286 -0.2460
   83POPX   GL2  988  25.800  25.676   6.825  0.0037 -0.1904 -0.1246
   83POPX   C1A  989  26.153  26.038   6.860  0.0966  0.0721 -0.1487
   83POPX   D2A  990  26.114  26.223   6.420 -0.2934 -0.2491 -0.2788
   83POPX   C3A  991  26.179  26.357   5.992  0.1003  0.2532  0.2740
   83POPX   C4A  992  26.199  26.433   5.570 -0.0041 -0.4285  0.1261
   83POPX   C1B  993  25.888  25.781   6.474  0.0882 -0.2264  0.2155
   83POPX   C2B  994  26.084  25.820   6.059  0.2969 -0.0033 -0.1355
   83POPX   C3B  995  26.112  25.849   5.572  0.0742 -0.1733  0.3729
   83POPX   C4B  996  25.903  25.615   5.135  0.0656 -0.3128  0.2014
   84POPX   NC3  997  25.598   4.651   8.699  0.0362 -0.1558  0.0664
   84POPX   PO4  998  25.736   4.684   8.335 -0.0309  0.3505 -0.1436
   84POPX   GL1  999  25.884   4.859   8.088 -0.1076  0.0889  0.3205
   84POPX   GL2 1000  26.120   4.849   7.978  0.1795 -0.3583 -0.0741
   84POPX   C1A 1001  25.789   5.001   7.678 -0.0206  0.0064  0.0934
   84POPX   D2A 1002  25.986   4.994   7.194  0.3098  0.3560 -0.0079
   84POPX   C3A 1003  25.981   4.963   6.775 -0.0205  0.0103  0.0823
   84POPX   C4A 1004  26.138   4.907   6.305 -0.2009  0.1788 -0.0186
   84POPX   C1B 1005  26.050   4.650   7.683  0.0927 -0.8419 -0.4484
   84POPX   C2B 1006  25.863   4.493   7.346 -0.1609  0.2325  0.0662
   84POPX   C3B 1007  25.941   4.279   6.916  0.1212  0.0071 -0.0721
   84POPX   C4B 1008  25.759   3.989   6.521 -0.2859  0.0043  0.2539
   85POPX   NC3 1009  25.961  19.002   7.529  0.0202 -0.1498  0.0511
   85POPX   PO4 1010  26.304  19.164   7.637  0.1074  0.0579 -0.0873
   85POPX   GL1 1011  26.529  19.295   7.361 -0.1863  0.0031  0.1046
   85POPX   GL2 1012  26.713  19.126   7.322  0.1668 -0.0283  0.1895
   85POPX   C1A 1013  26.549  19.330   6.906 -0.0569  0.1261 -0.1108
   85POPX   D2A 1014  26.515  19.426   6.454 -0.1036  0.2975 -0.0210
   85POPX   C3A 1015  26.354  19.406   6.016 -0.0239 -0.0812 -0.3750
   85POPX   C4A 1016  26.597  19.330   5.544  0.1544  0.1053  0.0041
   85POPX   C1B 1017  26.919  19.048   6.988 -0.3276 -0.1121  0.4593
   85POPX   C2B 1018  27.123  19.220   6.689 -0.2053  0.1409  0.1896
   85POPX   C3B 1019  27.340  19.165   6.350  0.0668 -0.0781  0.1083
   85POPX   C4B 1020  27.529  18.980   5.883 -0.1414  0.0106 -0.0774
   86POPX   NC3 1021  16.409  14.079   6.940  0.0107 -0.1279 -0.0198
   86POPX   PO4 1022  16.353  14.446   7.147 -0.1133 -0.0050 -0.0214
   86POPX   GL1 1023  16.072  14.546   6.783 -0.3218  0.0477  0.2005
   86POPX   GL2 1024  16.061  14.276   6.683 -0.0527 -0.2005  0.2484
   86POPX   C1A 1025  16.165  14.734   6.395  0.0551 -0.0892  0.1815
   86POPX   D2A 1026  16.315  14.820   6.018  0.0982 -0.2916  0.0915
   86POPX   C3A 1027  16.441  15.113   5.652 -0.1939  0.1485 -0.0195
   86POPX   C4A 1028  16.238  15.471   5.451  0.3888 -0.0425  0.2983
   86POPX   C1B 1029  15.987  14.212   6.336  0.0283  0.2331 -0.1088
   86POPX   C2B 1030  16.212  14.335   5.976  0.2757 -0.1884 -0.1253
   86POPX   C3B 1031  16.306  14.522   5.548  0.3336 -0.1429  0.1238
   86POPX   C4B 1032  16.332  14.729   5.094  0.2792 -0.2093 -0.1058
   87POPX   NC3 1033  17.284  21.206   7.799 -0.0195  0.1464 -0.1848
   87POPX   PO4 1034  17.328  21.543   7.602  0.1982  0.0115  0.0262
   87POPX   GL1 1035  17.481  21.586   7.213 -0.1179 -0.4474  0.0730
   87POPX   GL2 1036  17.742  21.544   7.265 -0.2716  0.2090  0.0860
   87POPX   C1A 1037  17.546  21.739   6.815 -0.1954  0.1315 -0.1844
   87POPX   D2A 1038  17.961  21.762   6.484 -0.1140  0.0293  0.5089
   87POPX   C3A 1039  18.112  21.616   6.011 -0.3007 -0.1837  0.0389
   87POPX   C4A 1040  18.091  21.712   5.539  0.0210  0.2574 -0.3383
   87POPX   C1B 1041  17.932  21.307   7.038 -0.2005  0.4292  0.2620
   87POPX   C2B 1042  17.949  21.027   6.704  0.0560 -0.0026 -0.5417
   87POPX   C3B 1043  17.939  20.828   6.265  0.1021 -0.1467 -0.0134
   87POPX   C4B 1044  18.075  20.664   5.867  0.1832 -0.0268 -0.0811
   88POPX   NC3 1045  17.350   4.958   7.031 -0.3406  0.2296 -0.0035
   88POPX   PO4 1046  17.282   5.362   6.993  0.1944  0.5791  0.0335
   88POPX   GL1 1047  17.418   5.666   6.664  0.4192 -0.1870  0.4238
   88POPX   GL2 1048  17.300   5.887   6.795 -0.0434  0.0354 -0.1563
   88POPX   C1A 1049  17.255   5.651   6.262  0.0623  0.0030 -0.1360
   88POPX   D2A 1050  17.116   5.789   5.855  0.3923 -0.2698 -0.2716
   88POPX   C3A 1051  17.270   5.688   5.434  0.1683 -0.1911 -0.2896
   88POPX   C4A 1052  17.393   5.619   4.907 -0.0756  0.0369  0.0908
   88POPX   C1B 1053  17.074   5.989   6.552  0.6503 -0.0738  0.1097
   88POPX   C2B 1054  16.941   6.124   6.150  0.2442 -0.1886  0.0364
   88POPX   C3B 1055  16.961   6.304   5.719 -0.0330 -0.0134  0.1129
   88POPX   C4B 1056  16.874   6.429   5.207  0.3964  0.0802 -0.1960
   89POPX   NC3 1057  22.571  11.361   7.601 -0.0861  0.3009 -0.2848
   89POPX   PO4 1058  22.894  11.326   7.890 -0.3113 -0.1813 -0.1183
   89POPX   GL1 1059  23.205  11.636   7.842 -0.3521 -0.2260 -0.0364
   89POPX   GL2 1060  22.882  11.762   7.858  0.0916 -0.0845  0.2765
   89POPX   C1A 1061  23.559  11.709   7.579 -0.0654 -0.2015  0.2423
   89POPX   D2A 1062  23.869  11.513   7.258 -0.1382 -0.2367  0.3873
   89POPX   C3A 1063  23.942  11.207   6.972  0.1539  0.1402 -0.0785
   89POPX   C4A 1064  23.940  11.241   6.466  0.0158 -0.1785 -0.1369
   89POPX   C1B 1065  22.817  11.811   7.459 -0.1746  0.1569  0.1140
   89POPX   C2B 1066  22.736  12.042   7.076 -0.1465 -0.1371 -0.4564
   89POPX   C3B 1067  22.645  12.176   6.564  0.1654 -0.0280 -0.2692
   89POPX   C4B 1068  22.757  12.527   6.189 -0.2278 -0.1724 -0.1579
   90POPX   NC3 1069  20.226  10.159   7.330 -0.0196  0.0584 -0.1138
   90POPX   PO4 1070  20.579  10.001   7.391 -0.0180  0.0114  0.2579
   90POPX   GL1 1071  20.680   9.840   6.975  0.0914  0.1092 -0.3055
   90POPX   GL2 1072  20.919  10.057   6.930  0.5313 -0.0171 -0.0237
   90POPX   C1A 1073  20.752   9.479   6.710  0.0836  0.0226 -0.0036
   90POPX   D2A 1074  20.945   9.096   6.408  0.4326 -0.0366  0.4142
   90POPX   C3A 1075  20.814   9.262   6.050  0.2541  0.0936  0.1260
   90POPX   C4A 1076  20.629   9.615   5.783 -0.0677  0.0165  0.0820
   90POPX   C1B 1077  21.076   9.998   6.616 -0.1382  0.2762 -0.1204
   90POPX   C2B 1078  21.232  10.020   6.245 -0.3016 -0.2670  0.0802
   90POPX   C3B 1079  21.313  10.281   5.849 -0.2053  0.2437  0.0357
   90POPX   C4B 1080  21.080  10.222   5.399 -0.1503 -0.3837  0.3307
   91POPX   NC3 1081   3.150  25.972   8.180  0.1072  0.1435 -0.0313
   91POPX   PO4 1082   2.784  26.105   8.052  0.1053  0.0750  0.3618
   91POPX   GL1 1083   2.817  26.010   7.653  0.0433  0.1690 -0.3661
   91POPX   GL2 1084   2.519  26.090   7.609  0.2494 -0.0980 -0.3046
   91POPX   C1A 1085   3.003  26.037   7.274 -0.0409  0.0967  0.0748
   91POPX   D2A 1086   2.898  25.969   6.782 -0.0043 -0.0807 -0.1608
   91POPX   C3A 1087   3.003  25.882   6.356 -0.1239  0.0671 -0.3686
   91POPX   C4A 1088   3.160  25.716   5.976  0.1272  0.0815  0.2621
   91POPX   C1B 1089   2.441  26.218   7.236  0.1432  0.1880 -0.4406
   91POPX   C2B 1090   2.503  26.210   6.833 -0.1103  0.0252  0.2841
   91POPX   C3B 1091   2.616  26.185   6.347  0.1647 -0.0348 -0.0791
   91POPX   C4B 1092   2.700  26.233   5.895 -0.0108 -0.0346  0.1580
   92POPX   NC3 1093  20.283   2.764   7.830  0.4504 -0.0519  0.0561
   92POPX   PO4 1094  20.150   2.402   7.715  0.0404  0.1376 -0.2771
   92POPX   GL1 1095  20.086   2.117   7.415  0.0093  0.0883  0.2590
   92POPX   GL2 1096  20.288   2.306   7.326  0.1686  0.0006 -0.4854
   92POPX   C1A 1097  19.915   1.997   7.070 -0.0433 -0.2000  0.2450
   92POPX   D2A 1098  19.473   1.896   6.917  0.2067 -0.1426 -0.0314
   92POPX   C3A 1099  19.556   1.611   6.550  0.1327  0.1099  0.1650
   92POPX   C4A 1100  19.968   1.278   6.426 -0.3931 -0.3218  0.2355
   92POPX   C1B 1101  20.306   2.451   6.991  0.0216  0.1876 -0.0928
   92POPX   C2B 1102  20.277   2.600   6.613 -0.0137  0.3958  0.4819
   92POPX   C3B 1103  20.152   2.579   6.101  0.0280 -0.0725  0.0339
   92POPX   C4B 1104  19.997   2.627   5.702  0.0955 -0.0113  0.2668
   93POPX   NC3 1105  16.033  17.111   8.019 -0.0973 -0.3873  0.1469
   93POPX   PO4 1106  16.065  17.504   7.899  0.1505 -0.2599  0.0549
   93POPX   GL1 1107  16.332  17.577   7.551  0.0215  0.3238 -0.4035
   93POPX   GL2 1108  16.191  17.765   7.458 -0.0843  0.2747  0.0899
   93POPX   C1A 1109  16.527  17.343   7.162 -0.0968 -0.1327 -0.1468
   93POPX   D2A 1110  16.490  17.430   6.668  0.2674  0.1679  0.0983
   93POPX   C3A 1111  16.336  17.812   6.428  0.0045 -0.1522  0.2614
   93POPX   C4A 1112  16.232  18.061   6.024  0.0113 -0.3176 -0.1303
   93POPX   C1B 1113  16.095  17.675   7.081 -0.0094 -0.0437 -0.0922
   93POPX   C2B 1114  15.986  17.617   6.667  0.1227 -0.0917  0.1076
   93POPX   C3B 1115  15.925  17.648   6.158  0.3193 -0.2130  0.0577
   93POPX   C4B 1116  16.002  17.742   5.699  0.5071  0.3847 -0.1688
   94POPX   NC3 1117  11.839  23.301   7.608  0.0702 -0.0663 -0.3293
   94POPX   PO4 1118  12.166  23.314   7.416 -0.0935 -0.2828 -0.0981
   94POPX   GL1 1119  12.342  23.554   7.145 -0.4112 -0.1035 -0.0064
   94POPX   GL2 1120  12.123  23.511   6.903  0.4530  0.0239  0.2866
   94POPX   C1A 1121  12.694  23.684   6.961  0.0951 -0.1505  0.0333
   94POPX   D2A 1122  13.093  23.874   6.862  0.1145  0.0439 -0.2937
   94POPX   C3A 1123  13.210  24.257   6.548 -0.0223  0.3403 -0.0145
   94POPX   C4A 1124  12.929  24.589   6.753  0.0461 -0.2807 -0.1794
   94POPX   C1B 1125  12.293  23.724   6.599  0.1466  0.1554 -0.0223
   94POPX   C2B 1126  12.343  23.939   6.244 -0.2325  0.0946  0.0605
   94POPX   C3B 1127  12.681  24.343   6.218 -0.0690  0.1625 -0.1913
   94POPX   C4B 1128  12.985  24.736   6.194  0.1667  0.2600 -0.5045
   95POPX   NC3 1129  19.617   5.079   7.476  0.2122 -0.1059 -0.4562
   95POPX   PO4 1130  19.307   4.941   7.265 -0.3276 -0.0646 -0.0841
   95POPX   GL1 1131  19.437   5.079   6.925  0.0454 -0.0600  0.1746
   95POPX   GL2 1132  19.455   4.784   6.810  0.5105  0.1180 -0.1067
   95POPX   C1A 1133  19.272   5.394   6.620 -0.1263  0.1308  0.3199
   95POPX   D2A 1134  19.110   5.810   6.363 -0.0256  0.0625 -0.2282
   95POPX   C3A 1135  19.460   6.036   6.152 -0.0790 -0.0265  0.0868
   95POPX   C4A 1136  19.811   5.963   5.886  0.2934 -0.0469 -0.2004
   95POPX   C1B 1137  19.532   4.774   6.452 -0.0633  0.1290 -0.2081
   95POPX   C2B 1138  19.601   4.572   6.107  0.1152 -0.0751 -0.4264
   95POPX   C3B 1139  19.649   4.553   5.660  0.0773 -0.2779 -0.2398
   95POPX   C4B 1140  19.748   4.364   5.263  0.1614 -0.0117  0.0536
   96POPX   NC3 1141   1.858  19.877   7.508 -0.3132  0.2324 -0.0079
   96POPX   PO4 1142   1.845  19.510   7.489  0.0015  0.6180  0.0687
   96POPX   GL1 1143   2.027  19.235   7.254  0.1473 -0.1006 -0.0651
   96POPX   GL2 1144   2.146  19.454   7.174  0.0518 -0.1534  0.0831
   96POPX   C1A 1145   1.857  18.876   7.078 -0.1958 -0.1900 -0.1260
   96POPX   D2A 1146   1.892  18.693   6.607 -0.0933 -0.2322 -0.0785
   96POPX   C3A 1147   2.266  18.477   6.470 -0.1955  0.0847 -0.1594
   96POPX   C4A 1148   2.574  18.546   6.078  0.1227  0.0395 -0.1911
   96POPX   C1B 1149   2.143  19.616   6.888 -0.0444  0.3224 -0.1227
   96POPX   C2B 1150   1.947  19.579   6.535  0.0854 -0.0997  0.2185
   96POPX   C3B 1151   2.233  19.429   6.156  0.0326 -0.1093  0.2898
   96POPX   C4B 1152   2.362  19.112   5.812 -0.1396  0.2396  0.2128
   97POPX   NC3 1153   7.378  12.435   7.059  0.1202 -0.2341  0.0982
   97POPX   PO4 1154   7.113  12.650   7.038  0.1042 -0.1139  0.1491
   97POPX   GL1 1155   6.858  12.755   6.703 -0.0302  0.2413 -0.0866
   97POPX   GL2 1156   7.064  12.853   6.624 -0.0292  0.0341 -0.0097
   97POPX   C1A 1157   6.691  12.720   6.327  0.3521  0.4809  0.0670
   97POPX   D2A 1158   6.627  12.648   5.835  0.1510  0.0555 -0.2460
   97POPX   C3A 1159   6.689  12.788   5.428 -0.0693 -0.0029  0.1348
   97POPX   C4A 1160   6.906  12.839   5.004  0.3632 -0.1098 -0.2077
   97POPX   C1B 1161   7.158  12.796   6.259 -0.2428  0.3739 -0.0413
   97POPX   C2B 1162   7.142  12.720   5.854  0.2911 -0.1201 -0.0396
   97POPX   C3B 1163   7.154  12.944   5.459  0.0160  0.3487  0.1473
   97POPX   C4B 1164   7.211  13.218   5.062  0.1091  0.0653 -0.1497
   98POPX   NC3 1165  18.299   4.860   7.113  0.1749  0.0617 -0.1058
   98POPX   PO4 1166  18.530   4.485   7.099 -0.1204 -0.1753  0.0948
   98POPX   GL1 1167  18.613   4.254   6.743 -0.1906 -0.0111  0.1011
   98POPX   GL2 1168  18.472   4.032   6.820  0.3230 -0.2541  0.1290
   98POPX   C1A 1169  18.390   4.334   6.333  0.1116  0.2618  0.2617
   98POPX   D2A 1170  17.967   4.108   5.977  0.1072 -0.0091 -0.0073
   98POPX   C3A 1171  17.871   3.676   5.805  0.1394  0.2280 -0.0684
   98POPX   C4A 1172  18.220   3.251   5.870  0.0673 -0.0214 -0.3329
   98POPX   C1B 1173  18.398   3.677   6.697 -0.1252  0.2564  0.1021
   98POPX   C2B 1174  18.400   3.327   6.397 -0.0451  0.1330  0.2785
   98POPX   C3B 1175  18.506   2.933   6.068 -0.2711 -0.1542 -0.2842
   98POPX   C4B 1176  18.580   2.608   5.667 -0.0793  0.0452  0.2708
   99POPX   NC3 1177  14.983  10.140   7.856  0.4799 -0.0686 -0.1099
   99POPX   PO4 1178  15.077  10.295   7.495 -0.1821  0.0392 -0.0491
   99POPX   GL1 1179  15.108  10.307   7.068 -0.0238  0.0146  0.1094
   99POPX   GL2 1180  15.156  10.560   7.028  0.3105 -0.0632  0.3584
   99POPX   C1A 1181  15.179   9.977   6.806  0.1024  0.0393 -0.1721
   99POPX   D2A 1182  15.669   9.912   6.776 -0.2360  0.0858 -0.1537
   99POPX   C3A 1183  15.844   9.846   6.331 -0.1335  0.0535 -0.0321
   99POPX   C4A 1184  15.977  10.046   5.912 -0.0225  0.3545 -0.1386
   99POPX   C1B 1185  15.173  10.516   6.624  0.1080 -0.0958 -0.4682
   99POPX   C2B 1186  15.047  10.527   6.198  0.1424  0.2544 -0.0206
   99POPX   C3B 1187  15.293  10.639   5.793 -0.2951  0.3746  0.1268
   99POPX   C4B 1188  15.678  10.698   5.459 -0.0758 -0.1379  0.0274
  100POPX   NC3 1189  20.895  21.391   7.461 -0.2800  0.3612  0.2697
  100POPX   PO4 1190  21.097  21.752   7.485  0.0063 -0.2226  0.0137
  100POPX   GL1 1191  21.093  21.847   6.988 -0.0065 -0.2747 -0.0795
  100POPX   GL2 1192  21.272  21.627   7.072  0.4110 -0.0425  0.2182
  100POPX   C1A 1193  20.847  21.679   6.669  0.2071  0.2781 -0.1648
  100POPX   D2A 1194  20.869  21.732   6.147  0.1956  0.0615 -0.0931
  100POPX   C3A 1195  20.767  21.851   5.744  0.2818  0.0466 -0.0389
  100POPX   C4A 1196  20.933  22.152   5.427 -0.0342  0.2913 -0.2274
  100POPX   C1B 1197  21.406  21.633   6.765 -0.3472  0.4119 -0.2477
  100POPX   C2B 1198  21.258  21.572   6.406  0.1604  0.0907 -0.0578
  100POPX   C3B 1199  21.346  21.717   5.966  0.0287  0.0546 -0.2086
  100POPX   C4B 1200  21.400  21.961   5.563  0.3158 -0.0274  0.0821
  101POPX   NC3 1201  21.029  15.242   6.802 -0.2516  0.1537 -0.1363
  101POPX   PO4 1202  20.798  14.943   6.891 -0.2610 -0.1426 -0.0645
  101POPX   GL1 1203  20.673  14.698   6.556 -0.0510  0.0670 -0.1071
  101POPX   GL2 1204  20.895  14.829   6.433  0.1995  0.2484  0.1473
  101POPX   C1A 1205  20.438  14.454   6.243  0.1879 -0.2105  0.1969
  101POPX   D2A 1206  20.435  14.230   5.797 -0.1587 -0.0433 -0.2503
  101POPX   C3A 1207  20.221  14.034   5.557  0.2575  0.1669  0.1274
  101POPX   C4A 1208  19.997  13.746   5.199  0.0341  0.0539 -0.2993
  101POPX   C1B 1209  20.905  14.850   6.058  0.2942 -0.4556  0.1609
  101POPX   C2B 1210  21.073  14.780   5.716 -0.0848 -0.0825  0.0227
  101POPX   C3B 1211  20.929  14.605   5.295 -0.1860  0.2121 -0.1106
  101POPX   C4B 1212  20.912  14.420   4.810 -0.0635 -0.1935  0.1273
  102POPX   NC3 1213   2.093  22.782   8.481  0.2556 -0.1063 -0.1544
  102POPX   PO4 1214   2.089  22.467   8.229 -0.0930  0.2533 -0.3377
  102POPX   GL1 1215   2.027  22.704   7.839 -0.5179  0.1373  0.1941
  102POPX   GL2 1216   1.800  22.581   7.831 -0.4814 -0.0888  0.1223
  102POPX   C1A 1217   2.287  22.857   7.516 -0.0028 -0.4188  0.0279
  102POPX   D2A 1218   2.249  22.733   7.024 -0.2185  0.0759  0.3385
  102POPX   C3A 1219   2.205  22.440   6.656  0.0376 -0.0698 -0.0260
  102POPX   C4A 1220   2.047  22.343   6.200 -0.0084 -0.2960  0.3338
  102POPX   C1B 1221   1.845  22.382   7.447 -0.1069 -0.1656 -0.2539
  102POPX   C2B 1222   2.057  22.295   7.104  0.1262 -0.2436  0.0144
  102POPX   C3B 1223   2.218  21.961   6.767  0.3668  0.1229  0.0382
  102POPX   C4B 1224   2.030  21.856   6.273  0.3523  0.1174 -0.1175
  103POPX   NC3 1225   6.088  11.362   7.347 -0.0865 -0.1017  0.0396
  103POPX   PO4 1226   6.250  11.697   7.184  0.1086 -0.2140  0.1989
  103POPX   GL1 1227   6.258  11.592   6.817  0.4317  0.2151  0.6958
  103POPX   GL2 1228   5.968  11.758   6.772  0.1588 -0.2253  0.4327
  103POPX   C1A 1229   6.493  11.623   6.448 -0.1282  0.0145  0.0552
  103POPX   D2A 1230   6.663  11.312   6.164  0.1581  0.0771 -0.0809
  103POPX   C3A 1231   6.926  11.546   5.796  0.5841 -0.3283 -0.0349
  103POPX   C4A 1232   6.822  11.727   5.389  0.1703  0.3396 -0.1494
  103POPX   C1B 1233   5.917  11.822   6.418  0.2662  0.2707 -0.0354
  103POPX   C2B 1234   5.909  11.866   6.019  0.0822  0.4015  0.2879
  103POPX   C3B 1235   5.632  11.960   5.608 -0.2248  0.0607  0.2368
  103POPX   C4B 1236   5.211  12.004   5.359 -0.2685  0.0830 -0.0684
  104POPX   NC3 1237  26.716  20.520   7.660  0.2850 -0.1992  0.1964
  104POPX   PO4 1238  26.904  20.130   7.691 -0.0843  0.0041 -0.3574
  104POPX   GL1 1239  26.934  19.774   7.450 -0.1057 -0.1823  0.1099
  104POPX   GL2 1240  26.611  19.708   7.382 -0.2046  0.4354 -0.1702
  104POPX   C1A 1241  27.203  19.883   7.048 -0.1151  0.0550  0.1173
  104POPX   D2A 1242  27.358  19.627   6.635  0.2696 -0.2164 -0.0786
  104POPX   C3A 1243  27.630  19.828   6.276  0.3223 -0.0838 -0.0170
  104POPX   C4A 1244  27.826  20.166   5.996  0.0988 -0.3563 -0.1062
  104POPX   C1B 1245  26.589  19.866   7.053  0.1646 -0.1582 -0.1038
  104POPX   C2B 1246  26.729  20.109   6.792  0.1810  0.2754 -0.1732
  104POPX   C3B 1247  26.832  20.044   6.313 -0.0598  0.1281 -0.0417
  104POPX   C4B 1248  26.855  19.843   5.825  0.2005  0.0459 -0.1704
  105POPX   NC3 1249   9.538   4.521   7.582  0.2037  0.4246  0.1163
  105POPX   PO4 1250   9.906   4.550   7.471 -0.0217  0.1596  0.1119
  105POPX   GL1 1251  10.074   4.884   7.274 -0.0358 -0.1717  0.0044
  105POPX   GL2 1252  10.098   4.673   7.052  0.5506  0.0102 -0.0177
  105POPX   C1A 1253  10.058   5.108   6.922 -0.3219  0.0318  0.2356
  105POPX   D2A 1254  10.231   4.980   6.497  0.2723  0.1297  0.0172
  105POPX   C3A 1255  10.194   4.990   6.071 -0.1347 -0.1347  0.2645
  105POPX   C4A 1256  10.025   5.108   5.612 -0.0954  0.0751 -0.1121
  105POPX   C1B 1257   9.977   4.646   6.707 -0.0896  0.0450  0.0596
  105POPX   C2B 1258   9.985   4.611   6.303  0.0473  0.1973  0.1019
  105POPX   C3B 1259   9.935   4.547   5.877  0.2071  0.0535  0.5051
  105POPX   C4B 1260  10.065   4.578   5.402  0.0298 -0.0302  0.2746
  106POPX   NC3 1261  18.228  25.244   7.709 -0.0070  0.1247  0.1103
  106POPX   PO4 1262  18.129  25.588   7.986  0.0029 -0.3081 -0.3164
  106POPX   GL1 1263  18.133  25.893   7.727  0.0098 -0.4670  0.0846
  106POPX   GL2 1264  17.793  25.876   7.812 -0.0854  0.0771  0.6681
  106POPX   C1A 1265  18.302  26.164   7.442  0.1493 -0.2199 -0.4394
  106POPX   D2A 1266  18.661  25.975   7.079 -0.1914 -0.0033 -0.0133
  106POPX   C3A 1267  18.608  25.920   6.664 -0.0307 -0.3882 -0.0005
  106POPX   C4A 1268  18.579  25.730   6.175  0.1225 -0.1575 -0.1271
  106POPX   C1B 1269  17.822  25.999   7.437 -0.0685  0.0106  0.4640
  106POPX   C2B 1270  17.945  26.143   7.050  0.1964  0.0538  0.0021
  106POPX   C3B 1271  18.153  26.229   6.670  0.2907 -0.1349 -0.0416
  106POPX   C4B 1272  18.277  26.184   6.208 -0.1078 -0.1482 -0.1241
  107POPX   NC3 1273  17.625  11.090   7.327  0.1187 -0.1086  0.1947
  107POPX   PO4 1274  17.839  10.728   7.395 -0.1909 -0.1552 -0.6579
  107POPX   GL1 1275  17.977  10.956   7.064  0.3012  0.1450  0.0463
  107POPX   GL2 1276  17.910  10.800   6.824 -0.3080 -0.2376  0.2735
  107POPX   C1A 1277  17.914  11.334   6.811  0.0775  0.2096  0.4917
  107POPX   D2A 1278  17.811  11.827   6.952  0.1171  0.1179  0.0314
  107POPX   C3A 1279  17.602  12.088   6.581  0.0394 -0.0207 -0.2801
  107POPX   C4A 1280  17.378  12.054   6.134 -0.1511  0.1236  0.3946
  107POPX   C1B 1281  17.944  10.979   6.467 -0.0458 -0.0381  0.3872
  107POPX   C2B 1282  17.970  11.065   6.109 -0.1024  0.1776  0.0575
  107POPX   C3B 1283  17.798  11.272   5.751 -0.0058  0.2346 -0.2704
  107POPX   C4B 1284  17.557  11.292   5.382  0.2054  0.1082 -0.2577
  108POPX   NC3 1285  23.010   2.130   7.734  0.1034 -0.2002  0.0528
  108POPX   PO4 1286  23.201   2.462   7.679  0.0192  0.1071  0.2075
  108POPX   GL1 1287  23.215   2.373   7.327 -0.2255 -0.5033 -0.3777
  108POPX   GL2 1288  23.491   2.458   7.202 -0.1005  0.2540 -0.2183
  108POPX   C1A 1289  22.915   2.239   7.070 -0.3103 -0.3051 -0.1488
  108POPX   D2A 1290  22.441   2.163   7.111  0.1334 -0.0527  0.1916
  108POPX   C3A 1291  22.286   2.560   6.917 -0.2201  0.0817 -0.1675
  108POPX   C4A 1292  22.462   3.012   7.134 -0.3263 -0.1590 -0.2355
  108POPX   C1B 1293  23.341   2.482   6.916  0.1196 -0.3923 -0.1528
  108POPX   C2B 1294  23.091   2.510   6.554 -0.0945  0.5393  0.0050
  108POPX   C3B 1295  22.866   2.646   6.207 -0.4114  0.1083 -0.0760
  108POPX   C4B 1296  22.818   2.771   5.777  0.0284  0.1502  0.1875
  109POPX   NC3 1297  22.793  12.951   7.534 -0.2385  0.3639  0.0031
  109POPX   PO4 1298  22.683  12.587   7.617 -0.2918  0.4348 -0.4406
  109POPX   GL1 1299  22.825  12.352   7.379 -0.3006 -0.2945 -0.2240
  109POPX   GL2 1300  23.078  12.132   7.366 -0.0096 -0.0759 -0.0177
  109POPX   C1A 1301  22.854  12.579   6.974 -0.1985  0.0009  0.2777
  109POPX   D2A 1302  22.969  12.874   6.586  0.1631  0.1726  0.1364
  109POPX   C3A 1303  23.295  13.111   6.460  0.1158 -0.0188 -0.0404
  109POPX   C4A 1304  23.587  13.054   6.092  0.1285 -0.0707  0.1259
  109POPX   C1B 1305  23.177  12.256   6.983  0.1357  0.1676 -0.4647
  109POPX   C2B 1306  23.112  12.309   6.594  0.1801 -0.0737  0.1601
  109POPX   C3B 1307  23.180  12.342   6.086  0.0135 -0.0358 -0.1575
  109POPX   C4B 1308  23.400  12.011   5.814  0.1492 -0.1982 -0.0043
  110POPX   NC3 1309  27.541  21.889   8.064  0.4251 -0.0081 -0.0022
  110POPX   PO4 1310  27.533  21.712   7.679 -0.1183 -0.2178  0.1092
  110POPX   GL1 1311  27.405  21.484   7.219  0.2540  0.0498  0.4219
  110POPX   GL2 1312  27.444  21.724   7.217 -0.2814 -0.0378 -0.0498
  110POPX   C1A 1313  27.387  21.301   6.799 -0.1379 -0.1744  0.0962
  110POPX   D2A 1314  27.580  21.343   6.328  0.2745  0.1364 -0.1682
  110POPX   C3A 1315  27.456  21.415   5.905  0.2471 -0.1151 -0.0466
  110POPX   C4A 1316  27.676  21.295   5.438 -0.0040  0.1467  0.0323
  110POPX   C1B 1317  27.723  21.827   6.976 -0.0695 -0.5842  0.0251
  110POPX   C2B 1318  27.856  21.771   6.556  0.1657 -0.2532  0.0061
  110POPX   C3B 1319  27.861  21.723   6.081 -0.0058  0.0652 -0.0851
  110POPX   C4B 1320  27.803  21.737   5.607  0.1382 -0.0778  0.2578
  111POPX   NC3 1321  19.500   6.412   7.152  0.1003 -0.2621  0.2104
  111POPX   PO4 1322  19.359   6.766   7.029 -0.0560  0.1832  0.0903
  111POPX   GL1 1323  19.359   6.996   6.701 -0.0027 -0.0503 -0.0237
  111POPX   GL2 1324  19.347   7.226   6.820 -0.0902 -0.3111 -0.2978
  111POPX   C1A 1325  19.137   6.988   6.318 -0.0669  0.0187 -0.1839
  111POPX   D2A 1326  19.255   6.969   5.796 -0.2089 -0.0305  0.0493
  111POPX   C3A 1327  19.451   6.983   5.402 -0.0822  0.0189 -0.1785
  111POPX   C4A 1328  19.265   6.778   4.998 -0.0116 -0.2066  0.0575
  111POPX   C1B 1329  19.195   7.571   6.707  0.4894 -0.1550 -0.4879
  111POPX   C2B 1330  18.960   7.753   6.389 -0.1001  0.2807 -0.0807
  111POPX   C3B 1331  18.846   7.887   5.973  0.0415  0.2044 -0.0330
  111POPX   C4B 1332  18.786   7.842   5.509 -0.1280  0.2135  0.2935
  112POPX   NC3 1333   5.762  14.487   7.375  0.2767  0.4310 -0.4976
  112POPX   PO4 1334   5.797  14.806   7.086 -0.0173 -0.0012  0.1348
  112POPX   GL1 1335   5.712  14.676   6.751 -0.2253 -0.0405  0.1321
  112POPX   GL2 1336   5.980  14.773   6.597 -0.1535 -0.3054 -0.4764
  112POPX   C1A 1337   5.441  14.394   6.525 -0.1743 -0.3493  0.0496
  112POPX   D2A 1338   5.249  14.180   6.125 -0.0977  0.2267  0.0194
  112POPX   C3A 1339   5.284  13.997   5.686  0.1458  0.2579  0.0453
  112POPX   C4A 1340   5.025  13.677   5.361 -0.0841  0.1237  0.0108
  112POPX   C1B 1341   5.958  14.909   6.260  0.3848  0.0404 -0.1497
  112POPX   C2B 1342   5.806  14.891   5.847  0.2266  0.2133  0.2616
  112POPX   C3B 1343   5.666  15.180   5.498  0.2954 -0.3355 -0.0481
  112POPX   C4B 1344   5.378  15.571   5.476  0.1096 -0.6132 -0.0741
  113POPX   NC3 1345  23.069  10.473   7.723 -0.0795  0.1002 -0.1396
  113POPX   PO4 1346  23.178  10.123   7.638 -0.0652  0.4560  0.1326
  113POPX   GL1 1347  23.165   9.970   7.321  0.0045 -0.7158  0.0789
  113POPX   GL2 1348  23.445  10.000   7.198 -0.1487  0.2218  0.0273
  113POPX   C1A 1349  23.008   9.989   6.926  0.2099 -0.2367  0.1015
  113POPX   D2A 1350  23.085   9.968   6.418  0.2602  0.2188 -0.1046
  113POPX   C3A 1351  23.386   9.792   6.120  0.1328  0.1056  0.1007
  113POPX   C4A 1352  23.411   9.665   5.644 -0.0042 -0.2066  0.0166
  113POPX   C1B 1353  23.424  10.189   6.878 -0.1111  0.2604  0.2693
  113POPX   C2B 1354  23.625  10.366   6.565 -0.1036  0.1879 -0.1989
  113POPX   C3B 1355  23.711  10.788   6.300 -0.0343  0.0519 -0.2448
  113POPX   C4B 1356  23.966  11.152   6.025 -0.2118 -0.2090 -0.3783
  114POPX   NC3 1357  26.704  14.353   8.218  0.0985 -0.2788  0.1058
  114POPX   PO4 1358  26.494  14.438   7.880  0.0677 -0.1128  0.2250
  114POPX   GL1 1359  26.634  14.167   7.543 -0.2979 -0.1046  0.1659
  114POPX   GL2 1360  26.383  14.154   7.457  0.1059 -0.1877 -0.0899
  114POPX   C1A 1361  26.675  14.027   7.127 -0.3506  0.1903 -0.1499
  114POPX   D2A 1362  26.566  14.060   6.679 -0.0809 -0.1676 -0.1053
  114POPX   C3A 1363  26.735  13.946   6.306 -0.0877  0.1655  0.3238
  114POPX   C4A 1364  26.731  13.566   5.984 -0.0205 -0.0812  0.2508
  114POPX   C1B 1365  26.278  14.195   7.106  0.0001  0.3673 -0.3686
  114POPX   C2B 1366  26.184  14.345   6.736 -0.0752  0.0395 -0.0605
  114POPX   C3B 1367  26.253  14.189   6.265 -0.2060 -0.1802 -0.0437
  114POPX   C4B 1368  26.353  14.274   5.763 -0.0367  0.0619  0.1243
  115POPX   NC3 1369  24.645  10.913   8.110 -0.0787  0.0791  0.0122
  115POPX   PO4 1370  24.908  11.054   7.801 -0.3254 -0.0522  0.0958
  115POPX   GL1 1371  24.751  11.233   7.434 -0.1823  0.3825 -0.0930
  115POPX   GL2 1372  24.939  10.997   7.307  0.0072  0.1839 -0.1245
  115POPX   C1A 1373  25.076  11.529   7.357 -0.1320 -0.0559 -0.2179
  115POPX   D2A 1374  25.200  11.964   7.060 -0.0923 -0.1801  0.2047
  115POPX   C3A 1375  25.179  12.401   6.892 -0.2134  0.0233 -0.2518
  115POPX   C4A 1376  24.853  12.650   6.544 -0.1234  0.2628 -0.0768
  115POPX   C1B 1377  24.978  11.177   7.018  0.0094  0.4176 -0.0466
  115POPX   C2B 1378  24.994  11.123   6.613  0.0032  0.0661 -0.0960
  115POPX   C3B 1379  25.081  10.880   6.230  0.0099 -0.0769  0.0756
  115POPX   C4B 1380  25.431  10.782   5.788  0.0084 -0.0271 -0.1137
  116POPX   NC3 1381   7.876  25.753   8.016  0.1026 -0.0546  0.2012
  116POPX   PO4 1382   7.732  26.100   7.932 -0.0929  0.1157  0.0225
  116POPX   GL1 1383   7.690  26.114   7.501 -0.0537 -0.1079  0.2969
  116POPX   GL2 1384   7.845  26.384   7.486 -0.2788 -0.0376  0.1304
  116POPX   C1A 1385   7.969  25.876   7.202 -0.0863 -0.0545 -0.1010
  116POPX   D2A 1386   8.128  25.598   6.777  0.1869 -0.2557 -0.0028
  116POPX   C3A 1387   8.093  25.552   6.299 -0.2250  0.2884  0.1689
  116POPX   C4A 1388   8.185  25.479   5.809 -0.1699  0.0886 -0.0570
  116POPX   C1B 1389   7.979  26.512   7.127  0.0063 -0.1628  0.0117
  116POPX   C2B 1390   8.097  26.512   6.682  0.0997 -0.2102  0.1616
  116POPX   C3B 1391   8.239  26.749   6.343 -0.2535  0.0566  0.0033
  116POPX   C4B 1392   8.298  26.882   5.934  0.3264 -0.1892  0.3472
  117POPX   NC3 1393  17.559  22.990   7.265  0.0477  0.0385 -0.1684
  117POPX   PO4 1394  17.608  22.617   7.360 -0.2502  0.4518 -0.0923
  117POPX   GL1 1395  17.787  22.362   7.008  0.2608 -0.1137 -0.0310
  117POPX   GL2 1396  17.698  22.610   6.868  0.1517 -0.2275  0.0830
  117POPX   C1A 1397  17.625  22.207   6.662  0.1989 -0.0924  0.2419
  117POPX   D2A 1398  17.801  22.193   6.198  0.1495  0.2278  0.0811
  117POPX   C3A 1399  17.750  21.941   5.833  0.1226  0.2553 -0.2515
  117POPX   C4A 1400  17.793  22.056   5.294  0.2541 -0.0129  0.0153
  117POPX   C1B 1401  17.657  22.700   6.534  0.3107 -0.1344 -0.3441
  117POPX   C2B 1402  17.744  22.747   6.146  0.0715  0.2801 -0.1781
  117POPX   C3B 1403  17.791  22.445   5.758 -0.2209 -0.0347 -0.0662
  117POPX   C4B 1404  18.205  22.242   5.573 -0.3029 -0.1439 -0.2876
  118POPX   NC3 1405   3.949  12.866   7.171 -0.2788 -0.1273 -0.1406
  118POPX   PO4 1406   3.563  12.907   7.235  0.0226 -0.0590  0.0609
  118POPX   GL1 1407   3.415  13.243   6.968  0.0404 -0.0632  0.2235
  118POPX   GL2 1408   3.174  13.150   6.873  0.0172 -0.4075  0.1941
  118POPX   C1A 1409   3.770  13.274   6.677  0.3936  0.4122 -0.1672
  118POPX   D2A 1410   3.924  13.268   6.219 -0.3644 -0.1005  0.2508
  118POPX   C3A 1411   3.896  13.177   5.792  0.4475  0.0912 -0.2304
  118POPX   C4A 1412   3.688  13.013   5.390 -0.2125  0.1665 -0.2617
  118POPX   C1B 1413   3.309  13.216   6.533 -0.0132  0.0304 -0.2588
  118POPX   C2B 1414   3.329  13.277   6.177 -0.1194 -0.2033  0.1358
  118POPX   C3B 1415   3.265  13.329   5.636 -0.0125  0.1678  0.0151
  118POPX   C4B 1416   3.124  13.535   5.154 -0.1633 -0.1141  0.4384
  119POPX   NC3 1417   3.150  19.741   7.531  0.1672 -0.2604 -0.1073
  119POPX   PO4 1418   2.928  19.406   7.685  0.2509  0.0903 -0.1810
  119POPX   GL1 1419   2.851  19.180   7.300 -0.4608 -0.0324 -0.1627
  119POPX   GL2 1420   2.571  19.085   7.323 -0.0124  0.2415  0.4167
  119POPX   C1A 1421   2.571  19.488   7.095 -0.0087 -0.0242  0.1956
  119POPX   D2A 1422   2.456  19.470   6.549  0.3917 -0.2134 -0.0031
  119POPX   C3A 1423   2.670  19.604   6.146 -0.0531  0.2839 -0.2004
  119POPX   C4A 1424   2.853  19.322   5.803 -0.1828  0.0366 -0.2911
  119POPX   C1B 1425   2.329  19.050   7.050  0.0079  0.2251 -0.4499
  119POPX   C2B 1426   2.088  19.163   6.726 -0.0682 -0.1762  0.1024
  119POPX   C3B 1427   1.615  19.184   6.626 -0.0093 -0.3705  0.0821
  119POPX   C4B 1428   1.272  19.320   6.280 -0.0098 -0.1765  0.2596
  120POPX   NC3 1429   8.143  21.531   7.757  0.1139  0.0282  0.2571
  120POPX   PO4 1430   7.773  21.704   7.738  0.2283  0.3683  0.3145
  120POPX   GL1 1431   7.758  21.531   7.325  0.5744 -0.2246  0.0733
  120POPX   GL2 1432   7.517  21.475   7.171 -0.0515 -0.3465 -0.2149
  120POPX   C1A 1433   7.906  21.700   6.981  0.0710 -0.1813 -0.0698
  120POPX   D2A 1434   8.277  21.929   6.700  0.1450 -0.0475 -0.1982
  120POPX   C3A 1435   8.237  22.285   6.475  0.1330  0.1223 -0.0085
  120POPX   C4A 1436   7.796  22.466   6.262 -0.0207  0.2139 -0.0707
  120POPX   C1B 1437   7.665  21.386   6.868 -0.3373  0.0931  0.1213
  120POPX   C2B 1438   7.605  21.504   6.467  0.0017 -0.3169  0.2827
  120POPX   C3B 1439   7.609  21.732   6.102 -0.0274  0.0599 -0.2096
  120POPX   C4B 1440   7.824  21.937   5.704  0.2286 -0.3509 -0.0783
  121POPX   NC3 1441   2.028   0.066   7.469  0.2372  0.0318 -0.2231
  121POPX   PO4 1442   2.398  -0.026   7.644  0.0086  0.0567  0.2435
  121POPX   GL1 1443   2.537   0.284   7.399  0.2147  0.2841 -0.1357
  121POPX   GL2 1444   2.433   0.153   7.147  0.1993 -0.3694 -0.2075
  121POPX   C1A 1445   2.951   0.274   7.197  0.0920 -0.0178 -0.3347
  121POPX   D2A 1446   3.392   0.589   7.225 -0.2634 -0.0591  0.3405
  121POPX   C3A 1447   3.637   0.339   7.004 -0.2746  0.2197 -0.1598
  121POPX   C4A 1448   3.862   0.201   6.603  0.3414 -0.0073 -0.1648
  121POPX   C1B 1449   2.730  -0.010   6.913  0.1531 -0.3010  0.3553
  121POPX   C2B 1450   2.951  -0.110   6.633 -0.1410  0.0107  0.2216
  121POPX   C3B 1451   3.147  -0.315   6.281  0.1098  0.1644  0.4277
  121POPX   C4B 1452   3.144  -0.541   5.846 -0.2205 -0.1736  0.2521
  122POPX   NC3 1453   3.968   3.405   7.743 -0.3202  0.0721 -0.2568
  122POPX   PO4 1454   4.141   3.139   7.486  0.4703  0.0698 -0.0107
  122POPX   GL1 1455   4.000   3.362   7.220 -0.1992  0.2126 -0.1962
  122POPX   GL2 1456   3.699   3.304   7.231  0.1660 -0.0193  0.0414
  122POPX   C1A 1457   4.077   3.466   6.800 -0.2411  0.2364  0.0555
  122POPX   D2A 1458   4.143   3.320   6.309 -0.1057 -0.1999  0.1909
  122POPX   C3A 1459   4.256   3.471   5.884 -0.1987  0.1348  0.0039
  122POPX   C4A 1460   4.180   3.342   5.389  0.0496 -0.2655  0.1609
  122POPX   C1B 1461   3.651   3.528   6.939 -0.2687 -0.3542 -0.2077
  122POPX   C2B 1462   3.663   3.689   6.545 -0.0941 -0.1423  0.0047
  122POPX   C3B 1463   3.388   3.758   6.188 -0.0360 -0.1918 -0.0898
  122POPX   C4B 1464   3.008   3.582   5.894  0.2348  0.1202  0.0232
  123POPX   NC3 1465  15.265  18.414   7.784  0.0586  0.1870 -0.0237
  123POPX   PO4 1466  15.571  18.430   7.573  0.0398 -0.4491 -0.1682
  123POPX   GL1 1467  15.635  18.260   7.284  0.3131  0.1469  0.1587
  123POPX   GL2 1468  15.710  18.004   7.371 -0.2654  0.0801  0.2093
  123POPX   C1A 1469  15.886  18.462   6.946 -0.1455 -0.0952  0.3328
  123POPX   D2A 1470  16.091  18.525   6.502  0.2104  0.0227 -0.1097
  123POPX   C3A 1471  15.968  18.609   6.046 -0.3815 -0.1347 -0.0753
  123POPX   C4A 1472  15.766  18.575   5.650 -0.1003  0.0620 -0.1516
  123POPX   C1B 1473  15.641  17.889   7.001 -0.0926 -0.0927 -0.1475
  123POPX   C2B 1474  15.741  17.984   6.583 -0.0225  0.1276 -0.0242
  123POPX   C3B 1475  15.549  18.013   6.182  0.0873 -0.2996 -0.1353
  123POPX   C4B 1476  15.423  18.071   5.712 -0.0641  0.2094  0.0070
  124POPX   NC3 1477   9.898  26.692   7.569 -0.1750  0.1605 -0.1577
  124POPX   PO4 1478  10.185  26.408   7.577  0.1301 -0.3570 -0.0726
  124POPX   GL1 1479  10.086  26.160   7.210 -0.1459 -0.2521 -0.1448
  124POPX   GL2 1480  10.257  26.371   7.060  0.2540  0.2444  0.0847
  124POPX   C1A 1481   9.851  26.250   6.877  0.0424 -0.1409  0.1434
  124POPX   D2A 1482   9.914  26.183   6.382 -0.0869  0.1546  0.1039
  124POPX   C3A 1483   9.943  26.587   6.171  0.1197  0.2434  0.0051
  124POPX   C4A 1484   9.950  26.982   5.845  0.2001 -0.0783 -0.0860
  124POPX   C1B 1485  10.276  26.319   6.679 -0.1907 -0.4969  0.0992
  124POPX   C2B 1486  10.352  26.354   6.291  0.1146 -0.3592  0.0198
  124POPX   C3B 1487  10.505  26.506   5.891  0.0755  0.0883 -0.0374
  124POPX   C4B 1488  10.641  26.818   5.599 -0.0112 -0.0897 -0.1802
  125POPX   NC3 1489  14.258  12.789   7.678 -0.1194 -0.1267 -0.0648
  125POPX   PO4 1490  14.666  12.763   7.572 -0.0930  0.2935  0.2856
  125POPX   GL1 1491  14.490  12.765   7.172 -0.1017  0.0567  0.3433
  125POPX   GL2 1492  14.636  12.646   7.123 -0.1676  0.3621 -0.2618
  125POPX   C1A 1493  14.367  12.919   6.833  0.0335 -0.3399  0.1037
  125POPX   D2A 1494  14.443  12.873   6.372  0.3969  0.1958 -0.0646
  125POPX   C3A 1495  14.633  12.820   5.945  0.1367  0.0352 -0.1707
  125POPX   C4A 1496  14.895  12.761   5.516 -0.2521 -0.2382 -0.1150
  125POPX   C1B 1497  14.768  12.541   6.751 -0.1398  0.1241  0.1963
  125POPX   C2B 1498  14.843  12.537   6.342  0.0032  0.0534  0.0508
  125POPX   C3B 1499  15.145  12.613   6.003 -0.1178 -0.0072 -0.2562
  125POPX   C4B 1500  15.370  12.796   5.584 -0.3536  0.1289  0.0352
  126POPX   NC3 1501  14.387   8.674   8.394  0.0542  0.0463 -0.0767
  126POPX   PO4 1502  14.375   8.458   8.056 -0.0654 -0.1548 -0.1166
  126POPX   GL1 1503  14.116   8.537   7.681  0.0489  0.6044 -0.5230
  126POPX   GL2 1504  14.211   8.261   7.532 -0.1191  0.4009  0.1294
  126POPX   C1A 1505  14.290   8.835   7.360 -0.1513  0.2523  0.1754
  126POPX   D2A 1506  14.380   8.689   6.879  0.1448 -0.2717  0.1686
  126POPX   C3A 1507  14.426   8.662   6.438 -0.2667 -0.0460  0.4221
  126POPX   C4A 1508  14.679   8.841   6.067  0.0460 -0.0213 -0.1497
  126POPX   C1B 1509  14.286   8.308   7.157  0.1217  0.4877  0.0893
  126POPX   C2B 1510  14.429   8.097   6.831 -0.3227 -0.3301  0.3697
  126POPX   C3B 1511  14.231   8.091   6.353  0.1004 -0.0391 -0.1100
  126POPX   C4B 1512  14.024   7.989   5.893 -0.3366  0.0416 -0.0659
  127POPX   NC3 1513   9.105   6.134   7.111 -0.0838 -0.0076  0.1946
  127POPX   PO4 1514   9.224   5.809   7.265  0.0569 -0.2469 -0.1210
  127POPX   GL1 1515   9.201   5.538   6.986 -0.1110  0.0577  0.4138
  127POPX   GL2 1516   9.114   5.682   6.841 -0.1711  0.2030 -0.0198
  127POPX   C1A 1517   9.538   5.535   6.720  0.1416  0.1525  0.0481
  127POPX   D2A 1518   9.737   5.651   6.229 -0.1637 -0.1425 -0.1516
  127POPX   C3A 1519   9.714   5.461   5.816 -0.1916 -0.0800  0.0983
  127POPX   C4A 1520   9.535   5.322   5.393  0.2313 -0.0193 -0.1222
  127POPX   C1B 1521   9.185   5.701   6.473  0.3683 -0.0575  0.2498
  127POPX   C2B 1522   9.136   5.747   6.042 -0.0232  0.0050  0.1776
  127POPX   C3B 1523   9.178   5.705   5.530  0.0093  0.0785  0.0858
  127POPX   C4B 1524   9.612   5.818   5.397  0.2160 -0.1562  0.0437
  128POPX   NC3 1525  15.423  25.389   8.526 -0.0661  0.0091 -0.0038
  128POPX   PO4 1526  15.607  25.265   8.187  0.1487 -0.3630 -0.0062
  128POPX   GL1 1527  15.371  24.991   7.833  0.0268 -0.1386  0.6847
  128POPX   GL2 1528  15.230  25.213   7.818  0.0794  0.0857  0.2460
  128POPX   C1A 1529  15.346  24.936   7.420  0.1529  0.4923 -0.3542
  128POPX   D2A 1530  15.257  24.854   6.957 -0.0647  0.2587 -0.0911
  128POPX   C3A 1531  15.647  24.905   6.744 -0.1283 -0.0438 -0.3489
  128POPX   C4A 1532  15.872  24.787   6.337  0.1319  0.0379 -0.1511
  128POPX   C1B 1533  15.127  25.330   7.511  0.0474 -0.0651  0.1342
  128POPX   C2B 1534  15.126  25.388   7.156  0.2308 -0.2281 -0.0615
  128POPX   C3B 1535  15.089  25.450   6.661  0.3055 -0.3042  0.0166
  128POPX   C4B 1536  15.072  25.574   6.225 -0.0580 -0.1714  0.3504
  129POPX   NC3 1537  15.312  22.484   7.601  0.1870  0.2026 -0.0101
  129POPX   PO4 1538  15.309  22.078   7.693 -0.0065  0.0187 -0.0246
  129POPX   GL1 1539  15.302  22.004   7.270 -0.2112 -0.1634  0.1292
  129POPX   GL2 1540  15.385  21.755   7.289 -0.0404 -0.2985  0.0741
  129POPX   C1A 1541  15.373  21.932   6.844  0.0041 -0.0991  0.0381
  129POPX   D2A 1542  15.402  21.922   6.334 -0.1881 -0.0957 -0.1455
  129POPX   C3A 1543  15.117  22.184   6.144 -0.3593 -0.0625 -0.0361
  129POPX   C4A 1544  15.007  22.676   6.041 -0.1788 -0.1765  0.0420
  129POPX   C1B 1545  15.502  21.502   7.042  0.6937 -0.0905  0.0637
  129POPX   C2B 1546  15.526  21.461   6.635 -0.0172 -0.3392 -0.0643
  129POPX   C3B 1547  15.719  21.443   6.199 -0.0927  0.0559  0.0440
  129POPX   C4B 1548  15.864  21.550   5.747 -0.1276 -0.0929  0.2830
  130POPX   NC3 1549   4.991  15.069   7.492  0.2139 -0.2165 -0.0288
  130POPX   PO4 1550   5.311  14.923   7.300  0.1222 -0.0052  0.0315
  130POPX   GL1 1551   5.136  15.039   6.977 -0.1175  0.3496  0.0369
  130POPX   GL2 1552   4.993  15.258   7.044  0.1975 -0.1161  0.0276
  130POPX   C1A 1553   5.332  14.894   6.613  0.2280 -0.0958 -0.1822
  130POPX   D2A 1554   5.490  14.727   6.179  0.4267  0.0533 -0.2409
  130POPX   C3A 1555   5.503  14.445   5.791  0.1517  0.0132  0.1200
  130POPX   C4A 1556   5.243  14.548   5.401 -0.0501 -0.0465 -0.3055
  130POPX   C1B 1557   4.812  15.494   6.817 -0.1355  0.2147 -0.2541
  130POPX   C2B 1558   4.775  15.735   6.533 -0.0427 -0.1868 -0.2319
  130POPX   C3B 1559   4.789  15.817   6.061  0.1574 -0.1087  0.1170
  130POPX   C4B 1560   4.866  15.693   5.574  0.0196 -0.0376  0.2075
  131POPX   NC3 1561  16.663  23.653   7.675  0.0499  0.1511  0.2168
  131POPX   PO4 1562  16.947  23.377   7.698 -0.0827  0.0457  0.0806
  131POPX   GL1 1563  17.050  23.448   7.319 -0.2556  0.0443  0.1319
  131POPX   GL2 1564  16.919  23.685   7.286  0.0680  0.3920 -0.1189
  131POPX   C1A 1565  17.345  23.476   6.993  0.0670  0.0418  0.4334
  131POPX   D2A 1566  17.570  23.791   6.716  0.1083 -0.2937 -0.1445
  131POPX   C3A 1567  17.658  23.989   6.303  0.0447 -0.0616 -0.0746
  131POPX   C4A 1568  17.296  24.102   5.993  0.1033  0.1736 -0.0229
  131POPX   C1B 1569  16.910  23.737   6.964 -0.0366  0.0280  0.0038
  131POPX   C2B 1570  16.955  23.649   6.538 -0.2123  0.3306  0.2754
  131POPX   C3B 1571  16.999  23.693   6.068  0.0687 -0.1938 -0.0538
  131POPX   C4B 1572  16.730  23.528   5.696  0.0044  0.0856  0.1013
  132POPX   NC3 1573  18.043  17.289   8.089  0.1424  0.2851 -0.1233
  132POPX   PO4 1574  18.275  17.338   7.778  0.2586  0.1430  0.2117
  132POPX   GL1 1575  18.317  17.726   7.558  0.2163 -0.3034  0.0196
  132POPX   GL2 1576  18.025  17.777   7.584 -0.0245  0.0800 -0.0440
  132POPX   C1A 1577  18.386  17.952   7.166 -0.3040  0.0750  0.1519
  132POPX   D2A 1578  18.505  18.465   6.962 -0.1108  0.0235  0.0172
  132POPX   C3A 1579  18.308  18.439   6.544 -0.1836 -0.1699  0.2735
  132POPX   C4A 1580  18.347  18.582   6.117 -0.3570 -0.0367 -0.3078
  132POPX   C1B 1581  17.957  17.980   7.273 -0.1095  0.3501  0.2361
  132POPX   C2B 1582  17.965  18.170   6.913 -0.1259  0.2663 -0.0316
  132POPX   C3B 1583  17.937  18.074   6.458  0.3117  0.1992 -0.1796
  132POPX   C4B 1584  18.048  17.938   6.019  0.1047 -0.1837 -0.2794
  133POPX   NC3 1585   3.401  15.255   7.224  0.2286 -0.1679 -0.2074
  133POPX   PO4 1586   3.390  15.658   7.256 -0.0752  0.4724 -0.3528
  133POPX   GL1 1587   3.123  15.787   6.860 -0.1788 -0.1174  0.1146
  133POPX   GL2 1588   3.089  15.518   6.928 -0.2627  0.1425 -0.0918
  133POPX   C1A 1589   3.019  16.023   6.505  0.0534 -0.0596  0.0788
  133POPX   D2A 1590   3.025  16.232   6.030  0.0198  0.1491  0.1834
  133POPX   C3A 1591   3.118  16.607   5.766  0.3577 -0.1701 -0.1607
  133POPX   C4A 1592   3.278  16.829   5.370 -0.0246  0.2547  0.1871
  133POPX   C1B 1593   3.220  15.427   6.591 -0.1204 -0.1206 -0.0534
  133POPX   C2B 1594   3.191  15.342   6.202 -0.2270 -0.0952 -0.2583
  133POPX   C3B 1595   2.951  15.178   5.857  0.2917 -0.3029  0.3000
  133POPX   C4B 1596   2.751  15.291   5.422 -0.1085  0.1612  0.0516
  134POPX   NC3 1597  16.620  16.041   8.107  0.1517  0.0708  0.1102
  134POPX   PO4 1598  16.588  16.319   7.786 -0.2282 -0.0051  0.2829
  134POPX   GL1 1599  16.318  16.227   7.490  0.1408 -0.1603 -0.0178
  134POPX   GL2 1600  16.481  15.971   7.381  0.0616  0.0510  0.0215
  134POPX   C1A 1601  15.924  16.239   7.292 -0.0104 -0.0525 -0.1929
  134POPX   D2A 1602  15.480  16.362   7.159 -0.0084  0.1096  0.0860
  134POPX   C3A 1603  15.483  16.429   6.692 -0.1740  0.2538 -0.2741
  134POPX   C4A 1604  15.647  16.445   6.194 -0.2774  0.2182 -0.2186
  134POPX   C1B 1605  16.687  16.008   7.081  0.0258  0.2721  0.2095
  134POPX   C2B 1606  16.892  16.163   6.724 -0.0055  0.3744 -0.1538
  134POPX   C3B 1607  16.938  16.113   6.221 -0.1774  0.0115 -0.1317
  134POPX   C4B 1608  17.251  15.995   5.820  0.0649 -0.0682 -0.0496
  135POPX   NC3 1609   5.684   0.308   7.623 -0.1095  0.3235  0.2558
  135POPX   PO4 1610   5.339   0.136   7.667 -0.1371  0.0003  0.0747
  135POPX   GL1 1611   5.168   0.141   7.343  0.1365 -0.1333 -0.2797
  135POPX   GL2 1612   5.278   0.362   7.255 -0.1478 -0.0085 -0.1136
  135POPX   C1A 1613   4.820  -0.113   7.207 -0.0571 -0.0953  0.2223
  135POPX   D2A 1614   4.638  -0.111   6.769  0.0853 -0.2287  0.0024
  135POPX   C3A 1615   4.334  -0.100   6.443 -0.0611  0.1105 -0.0894
  135POPX   C4A 1616   3.973  -0.099   6.069  0.2681 -0.2067  0.0729
  135POPX   C1B 1617   5.361   0.337   6.950  0.3578 -0.1866  0.1370
  135POPX   C2B 1618   5.544   0.080   6.681  0.3954  0.5309  0.0675
  135POPX   C3B 1619   5.905  -0.208   6.513 -0.2008  0.4064  0.0081
  135POPX   C4B 1620   6.271  -0.489   6.336 -0.0747 -0.1593 -0.2250
  136POPX   NC3 1621   6.657   4.518   7.760 -0.2018  0.0265 -0.0532
  136POPX   PO4 1622   6.649   4.399   7.394 -0.1025  0.2575  0.2579
  136POPX   GL1 1623   6.762   4.493   6.974 -0.0063 -0.1272  0.1492
  136POPX   GL2 1624   6.933   4.678   6.974 -0.3160  0.4199 -0.1535
  136POPX   C1A 1625   6.763   4.323   6.596 -0.4553  0.1696 -0.0421
  136POPX   D2A 1626   6.717   4.257   6.116  0.0607  0.2020 -0.0847
  136POPX   C3A 1627   6.483   4.301   5.722 -0.2125 -0.2421  0.2385
  136POPX   C4A 1628   6.364   4.031   5.357 -0.1414  0.2077 -0.1539
  136POPX   C1B 1629   6.788   4.865   6.680  0.3051  0.0819 -0.2152
  136POPX   C2B 1630   6.763   4.740   6.308  0.2973 -0.0682 -0.0349
  136POPX   C3B 1631   6.788   4.764   5.856 -0.3740 -0.0788 -0.0733
  136POPX   C4B 1632   6.898   4.727   5.405 -0.0152  0.0715  0.1907
  137POPX   NC3 1633  19.006  12.668   7.206 -0.0231 -0.1001 -0.1068
  137POPX   PO4 1634  18.777  12.373   7.094  0.0650  0.0765 -0.2881
  137POPX   GL1 1635  18.713  12.284   6.668  0.3870  0.0558 -0.1338
  137POPX   GL2 1636  18.655  11.985   6.692 -0.1609 -0.1088  0.4342
  137POPX   C1A 1637  18.500  12.413   6.292 -0.1089  0.3504 -0.1042
  137POPX   D2A 1638  18.307  12.657   5.970 -0.0974  0.0402 -0.1215
  137POPX   C3A 1639  18.185  12.781   5.587  0.2241  0.1323 -0.1448
  137POPX   C4A 1640  17.848  12.563   5.362 -0.3387  0.0407  0.1479
  137POPX   C1B 1641  18.417  11.921   6.391 -0.1058 -0.2113  0.2177
  137POPX   C2B 1642  18.313  11.877   6.015 -0.1950  0.4688  0.0362
  137POPX   C3B 1643  17.831  11.776   5.937  0.0244  0.4649  0.1575
  137POPX   C4B 1644  17.504  11.811   5.629 -0.1046  0.1018  0.1648
  138POPX   NC3 1645   6.147  15.338   7.000 -0.0435  0.1577 -0.1480
  138POPX   PO4 1646   5.954  15.676   6.978 -0.1714 -0.0152  0.3905
  138POPX   GL1 1647   5.843  15.923   6.684 -0.0287 -0.0972 -0.2137
  138POPX   GL2 1648   5.618  15.833   6.554 -0.2541 -0.2040 -0.0236
  138POPX   C1A 1649   5.856  16.355   6.578 -0.2318 -0.3594 -0.1935
  138POPX   D2A 1650   5.654  16.776   6.396 -0.1139  0.5251  0.0919
  138POPX   C3A 1651   5.775  16.722   5.944  0.2563  0.1785 -0.1545
  138POPX   C4A 1652   5.811  16.461   5.531 -0.0979  0.1268 -0.0847
  138POPX   C1B 1653   5.521  15.744   6.190 -0.1650  0.1281 -0.3019
  138POPX   C2B 1654   5.206  15.509   6.015 -0.0530  0.3533  0.0675
  138POPX   C3B 1655   5.138  15.070   5.799  0.0670 -0.4430  0.1554
  138POPX   C4B 1656   4.828  14.806   5.610  0.1668  0.1967  0.1103
  139POPX   NC3 1657  18.605   1.010   7.651  0.0804 -0.1720 -0.0950
  139POPX   PO4 1658  18.355   1.127   7.427  0.0645 -0.0097 -0.1479
  139POPX   GL1 1659  18.415   1.217   7.049  0.2412  0.3168  0.1073
  139POPX   GL2 1660  18.187   1.422   7.056  0.2596  0.1608 -0.2576
  139POPX   C1A 1661  18.341   1.075   6.678 -0.1718 -0.2597 -0.0895
  139POPX   D2A 1662  18.467   0.970   6.226 -0.0439 -0.2731  0.2353
  139POPX   C3A 1663  18.440   1.000   5.716 -0.0572 -0.2741 -0.1404
  139POPX   C4A 1664  18.626   1.110   5.251  0.0478  0.1309 -0.2225
  139POPX   C1B 1665  17.842   1.292   6.901 -0.2016 -0.3280 -0.2583
  139POPX   C2B 1666  17.593   1.086   6.693  0.1215  0.0289 -0.2458
  139POPX   C3B 1667  17.280   1.006   6.348  0.2270 -0.2857 -0.1284
  139POPX   C4B 1668  17.044   0.778   6.022 -0.2570 -0.0871  0.3238
  140POPX   NC3 1669   9.679  12.457   7.488  0.0359  0.0816 -0.1330
  140POPX   PO4 1670   9.635  12.808   7.629 -0.1068 -0.1626  0.1521
  140POPX   GL1 1671   9.757  13.195   7.325  0.1764  0.0254  0.1101
  140POPX   GL2 1672   9.432  13.081   7.231 -0.2170 -0.2241  0.1316
  140POPX   C1A 1673   9.805  13.326   6.922  0.4997  0.3446 -0.0145
  140POPX   D2A 1674   9.869  13.396   6.447 -0.1116  0.3719  0.1690
  140POPX   C3A 1675   9.743  13.456   6.017 -0.3236 -0.0474 -0.0134
  140POPX   C4A 1676   9.523  13.468   5.541  0.2101  0.1824  0.1288
  140POPX   C1B 1677   9.399  13.416   7.087  0.2840  0.4909  0.1637
  140POPX   C2B 1678   9.346  13.619   6.718 -0.0129  0.1159  0.5029
  140POPX   C3B 1679   9.314  13.773   6.264 -0.0764  0.2082 -0.0014
  140POPX   C4B 1680   9.210  13.782   5.765 -0.0647  0.0845  0.1017
  141POPX   NC3 1681  15.778   1.083   8.256  0.0590  0.3635 -0.2774
  141POPX   PO4 1682  15.794   1.462   8.149  0.1691  0.0474  0.0914
  141POPX   GL1 1683  15.884   1.499   7.765 -0.1777 -0.0284  0.1081
  141POPX   GL2 1684  15.801   1.245   7.622 -0.0590 -0.0104 -0.2217
  141POPX   C1A 1685  16.114   1.672   7.499 -0.1117 -0.1035 -0.1415
  141POPX   D2A 1686  16.097   1.943   7.107 -0.2931  0.2681 -0.3958
  141POPX   C3A 1687  16.349   2.156   6.802 -0.4073 -0.0613  0.1658
  141POPX   C4A 1688  16.436   2.547   6.494 -0.1698  0.2447 -0.3992
  141POPX   C1B 1689  15.802   1.321   7.263 -0.2147 -0.1432  0.0495
  141POPX   C2B 1690  15.764   1.426   6.874 -0.2039 -0.0344 -0.0040
  141POPX   C3B 1691  15.819   1.464   6.360  0.0596 -0.0946  0.0383
  141POPX   C4B 1692  15.873   1.659   5.856 -0.0136  0.0213 -0.0663
  142POPX   NC3 1693  23.933  23.083   7.183 -0.1318  0.0395 -0.2835
  142POPX   PO4 1694  23.852  22.732   7.408  0.3589  0.2296 -0.0395
  142POPX   GL1 1695  23.962  22.386   7.158  0.5968 -0.0085 -0.0158
  142POPX   GL2 1696  24.223  22.492   7.141  0.2664  0.2111 -0.0330
  142POPX   C1A 1697  23.801  22.320   6.759 -0.3701  0.1218  0.2628
  142POPX   D2A 1698  24.032  22.184   6.350 -0.0224 -0.0480 -0.0325
  142POPX   C3A 1699  24.017  22.420   5.952  0.0881 -0.1550 -0.2600
  142POPX   C4A 1700  24.261  22.635   5.601 -0.0561 -0.0024  0.0936
  142POPX   C1B 1701  24.097  22.676   6.811 -0.0709  0.1067 -0.3046
  142POPX   C2B 1702  24.043  22.683   6.411  0.0523 -0.1504  0.0314
  142POPX   C3B 1703  24.071  22.917   5.973 -0.0185  0.1908  0.1052
  142POPX   C4B 1704  24.071  23.206   5.540  0.3505  0.2605  0.0696
  143POPX   NC3 1705  26.051  15.727   7.623  0.1428  0.2894  0.1330
  143POPX   PO4 1706  26.175  16.111   7.637  0.2754 -0.0700 -0.4027
  143POPX   GL1 1707  26.153  16.219   7.235  0.0039 -0.0873  0.0863
  143POPX   GL2 1708  26.162  15.891   7.128 -0.0495 -0.0196  0.2461
  143POPX   C1A 1709  25.842  16.401   7.007  0.1910 -0.0667  0.1150
  143POPX   D2A 1710  25.401  16.613   6.896  0.1251  0.0032  0.0231
  143POPX   C3A 1711  25.071  16.513   6.592 -0.0924  0.1019  0.1489
  143POPX   C4A 1712  24.830  16.288   6.223  0.5090  0.0843 -0.0025
  143POPX   C1B 1713  26.322  15.890   6.784 -0.0991 -0.1243 -0.0734
  143POPX   C2B 1714  26.312  15.971   6.404 -0.0899 -0.0543  0.0621
  143POPX   C3B 1715  26.295  15.881   5.959 -0.3405 -0.1972 -0.1153
  143POPX   C4B 1716  26.303  15.683   5.516 -0.0967 -0.2218  0.3133
  144POPX   NC3 1717  18.872   3.418   7.381  0.2982 -0.1987 -0.1332
  144POPX   PO4 1718  19.017   3.071   7.541 -0.2073  0.0543 -0.3043
  144POPX   GL1 1719  18.844   2.861   7.219 -0.0464 -0.0026  0.3499
  144POPX   GL2 1720  19.022   2.932   7.049 -0.3050 -0.1239  0.3447
  144POPX   C1A 1721  18.705   2.614   6.901 -0.2697  0.0666  0.1095
  144POPX   D2A 1722  18.565   2.477   6.412 -0.0524 -0.1117 -0.3554
  144POPX   C3A 1723  18.293   2.354   6.027 -0.0085 -0.0025  0.0241
  144POPX   C4A 1724  18.010   2.170   5.680 -0.4257 -0.2290  0.2148
  144POPX   C1B 1725  19.334   2.758   6.921  0.1828 -0.2484 -0.0044
  144POPX   C2B 1726  19.418   2.763   6.507  0.1247  0.0531  0.0328
  144POPX   C3B 1727  19.575   2.661   6.060  0.0870 -0.2133  0.1266
  144POPX   C4B 1728  19.772   2.207   6.041 -0.1113 -0.0199 -0.3200
  145POPX   NC3 1729  18.087  14.926   7.623  0.1953  0.1623  0.3619
  145POPX   PO4 1730  18.502  15.015   7.603  0.0408  0.0385 -0.0790
  145POPX   GL1 1731  18.680  15.226   7.269 -0.0842 -0.3051  0.0129
  145POPX   GL2 1732  18.714  15.005   7.119 -0.3303  0.0661 -0.4263
  145POPX   C1A 1733  18.613  15.647   7.245  0.0419  0.0221  0.0937
  145POPX   D2A 1734  18.295  15.954   6.989  0.1186  0.1918  0.0906
  145POPX   C3A 1735  18.162  15.960   6.562 -0.0294 -0.2419 -0.0758
  145POPX   C4A 1736  18.239  16.353   6.238  0.0436  0.1703 -0.3095
  145POPX   C1B 1737  18.793  14.792   6.793 -0.1283 -0.1090 -0.0750
  145POPX   C2B 1738  18.757  14.599   6.449 -0.0017  0.2313  0.1295
  145POPX   C3B 1739  18.834  14.481   6.011  0.0125 -0.0224  0.0157
  145POPX   C4B 1740  18.925  14.288   5.570 -0.2793  0.0822  0.0964
  146POPX   NC3 1741  24.850  21.906   7.161 -0.1246  0.1478  0.2194
  146POPX   PO4 1742  25.238  21.917   7.273 -0.0523  0.0502 -0.1859
  146POPX   GL1 1743  25.480  21.787   7.072 -0.2380  0.1408 -0.2364
  146POPX   GL2 1744  25.314  22.018   6.804  0.1684 -0.2259  0.1525
  146POPX   C1A 1745  25.580  21.645   6.690  0.0027  0.2531  0.5067
  146POPX   D2A 1746  25.549  21.805   6.147  0.2358  0.3105  0.0983
  146POPX   C3A 1747  25.374  21.565   5.784  0.2278  0.1009  0.4531
  146POPX   C4A 1748  24.977  21.848   5.620  0.1845 -0.3153 -0.3197
  146POPX   C1B 1749  25.231  21.953   6.498  0.2104 -0.0916  0.0661
  146POPX   C2B 1750  24.974  21.933   6.163  0.2574  0.1103 -0.1693
  146POPX   C3B 1751  24.538  21.788   5.803 -0.1605 -0.1609  0.0775
  146POPX   C4B 1752  24.199  21.453   5.710 -0.0018 -0.2183  0.1145
  147POPX   NC3 1753   4.507   0.846   8.371  0.0281  0.0345 -0.1231
  147POPX   PO4 1754   4.176   0.957   8.189  0.1924 -0.3183 -0.0127
  147POPX   GL1 1755   4.110   0.791   7.787 -0.4375 -0.1792 -0.0564
  147POPX   GL2 1756   3.924   0.989   7.755 -0.2016 -0.1929  0.7253
  147POPX   C1A 1757   4.294   0.725   7.387 -0.2451  0.2155 -0.3030
  147POPX   D2A 1758   4.475   0.755   6.924 -0.1071  0.0784  0.1067
  147POPX   C3A 1759   4.692   0.640   6.510 -0.0490 -0.0220 -0.1307
  147POPX   C4A 1760   4.670   0.220   6.367 -0.3628  0.2301  0.1187
  147POPX   C1B 1761   4.071   1.115   7.475 -0.0502  0.0488  0.0718
  147POPX   C2B 1762   4.210   1.188   7.133  0.1332  0.0235  0.3247
  147POPX   C3B 1763   4.274   1.214   6.706 -0.1134  0.0050  0.0504
  147POPX   C4B 1764   4.514   1.115   6.271 -0.3614  0.0438  0.1849
  148POPX   NC3 1765  23.364   4.707   8.032  0.1007 -0.3880 -0.2228
  148POPX   PO4 1766  23.775   4.770   8.051  0.1741 -0.0865 -0.1984
  148POPX   GL1 1767  23.993   5.034   7.689 -0.0874  0.6386 -0.4259
  148POPX   GL2 1768  24.067   5.245   7.784 -0.1366 -0.3320  0.0803
  148POPX   C1A 1769  24.046   4.846   7.298 -0.0324  0.3250 -0.2078
  148POPX   D2A 1770  24.164   4.776   6.824 -0.2513 -0.2908 -0.0267
  148POPX   C3A 1771  24.339   4.763   6.394 -0.4068 -0.0506  0.0921
  148POPX   C4A 1772  24.302   4.781   5.911  0.1456 -0.0089 -0.1404
  148POPX   C1B 1773  24.034   5.546   7.632  0.0958  0.1892  0.1365
  148POPX   C2B 1774  24.247   5.635   7.289 -0.3967 -0.1432 -0.0012
  148POPX   C3B 1775  24.277   5.663   6.798 -0.2831 -0.1644 -0.2076
  148POPX   C4B 1776  24.382   5.688   6.297  0.1697 -0.1687 -0.0474
  149POPX   NC3 1777  27.039   4.838   8.382 -0.0153 -0.2744  0.1404
  149POPX   PO4 1778  27.044   5.140   8.132  0.1224  0.2002  0.2419
  149POPX   GL1 1779  26.962   4.996   7.779  0.1717  0.2304 -0.1018
  149POPX   GL2 1780  26.769   5.071   7.649  0.1804 -0.0687  0.0666
  149POPX   C1A 1781  27.267   4.969   7.398 -0.0164 -0.0549  0.4634
  149POPX   D2A 1782  27.290   4.946   6.961  0.0147 -0.1555  0.2039
  149POPX   C3A 1783  27.452   4.876   6.529 -0.3198  0.0770 -0.0094
  149POPX   C4A 1784  27.359   4.887   6.096  0.0070  0.2956 -0.0571
  149POPX   C1B 1785  26.777   5.303   7.380  0.5296  0.2076 -0.0998
  149POPX   C2B 1786  26.991   5.360   6.982 -0.1520 -0.0034 -0.1370
  149POPX   C3B 1787  26.974   5.216   6.526 -0.0858  0.2758 -0.0233
  149POPX   C4B 1788  26.976   4.742   6.403 -0.0754 -0.1348  0.2302
  150POPX   NC3 1789   9.685  13.936   7.777  0.2036  0.1762  0.3014
  150POPX   PO4 1790   9.798  14.325   7.731 -0.0282 -0.2414 -0.0302
  150POPX   GL1 1791   9.711  14.157   7.346  0.3357  0.3667 -0.0275
  150POPX   GL2 1792   9.610  14.426   7.184  0.1809  0.2231  0.1222
  150POPX   C1A 1793   9.642  13.830   7.075 -0.0016 -0.3119  0.0215
  150POPX   D2A 1794   9.804  13.867   6.572 -0.1629  0.0261 -0.1941
  150POPX   C3A 1795   9.924  14.000   6.098 -0.1679  0.2881 -0.0586
  150POPX   C4A 1796  10.020  14.080   5.608  0.0645 -0.1908 -0.0146
  150POPX   C1B 1797   9.760  14.365   6.844  0.1215  0.2856  0.2903
  150POPX   C2B 1798   9.705  14.364   6.443  0.0084 -0.2128  0.0671
  150POPX   C3B 1799   9.835  14.535   5.992  0.1345  0.3119  0.0780
  150POPX   C4B 1800   9.846  14.653   5.546 -0.5282  0.0997  0.3256
  151POPX   NC3 1801   1.165   5.382   8.168 -0.0389 -0.0247  0.0504
  151POPX   PO4 1802   1.168   5.320   7.770 -0.2575 -0.1142  0.2131
  151POPX   GL1 1803   0.945   5.382   7.446  0.1318  0.0950 -0.0735
  151POPX   GL2 1804   0.988   5.061   7.371  0.2051 -0.1114 -0.1673
  151POPX   C1A 1805   0.791   5.575   7.078 -0.1118 -0.3558 -0.1375
  151POPX   D2A 1806   0.798   5.676   6.612  0.0948  0.3216 -0.0721
  151POPX   C3A 1807   0.959   6.024   6.436  0.0228 -0.1374  0.1388
  151POPX   C4A 1808   1.235   6.330   6.086  0.0366  0.0001 -0.1343
  151POPX   C1B 1809   0.892   5.169   7.037  0.2072  0.3480 -0.0027
  151POPX   C2B 1810   0.950   5.063   6.651 -0.0422  0.2002 -0.0488
  151POPX   C3B 1811   0.815   5.085   6.235 -0.0112 -0.1941 -0.0480
  151POPX   C4B 1812   0.831   5.170   5.792 -0.1977  0.1947 -0.1751
  152POPX   NC3 1813  12.712  10.148   7.765 -0.3041 -0.1825 -0.1151
  152POPX   PO4 1814  12.608   9.837   7.998 -0.0260  0.1086  0.1924
  152POPX   GL1 1815  12.460   9.536   7.738 -0.3125 -0.0473 -0.3148
  152POPX   GL2 1816  12.702   9.425   7.805  0.1243  0.1160  0.1379
  152POPX   C1A 1817  12.517   9.668   7.330 -0.0743  0.1695  0.1037
  152POPX   D2A 1818  12.785  10.122   7.174 -0.2679  0.0041  0.1086
  152POPX   C3A 1819  12.945  10.037   6.754  0.0337  0.1061 -0.2233
  152POPX   C4A 1820  13.369   9.977   6.532  0.2678  0.2004  0.1882
  152POPX   C1B 1821  12.687   9.174   7.520  0.0545 -0.3122 -0.0464
  152POPX   C2B 1822  12.760   9.000   7.112  0.3334  0.1717 -0.3527
  152POPX   C3B 1823  12.980   8.590   6.891 -0.0823 -0.3505 -0.0559
  152POPX   C4B 1824  12.921   8.266   6.593  0.1877  0.0902  0.2380
  153POPX   NC3 1825   7.289   7.091   7.739  0.0256 -0.3458 -0.0179
  153POPX   PO4 1826   7.303   7.443   7.546 -0.0061  0.3969  0.0111
  153POPX   GL1 1827   7.297   7.606   7.111 -0.1769 -0.0532 -0.0043
  153POPX   GL2 1828   7.591   7.606   7.079 -0.0825  0.3498  0.1834
  153POPX   C1A 1829   7.185   7.481   6.722  0.1150  0.3545  0.0032
  153POPX   D2A 1830   7.181   7.313   6.283  0.2455 -0.2442  0.2445
  153POPX   C3A 1831   7.000   7.156   5.949 -0.0463  0.1690  0.1971
  153POPX   C4A 1832   6.805   7.287   5.554 -0.0114  0.2011  0.2053
  153POPX   C1B 1833   7.612   7.314   6.898  0.0513 -0.0943  0.1699
  153POPX   C2B 1834   7.606   7.362   6.483 -0.1620 -0.1921 -0.0282
  153POPX   C3B 1835   7.636   7.337   6.038  0.0999  0.1879  0.0099
  153POPX   C4B 1836   7.475   7.088   5.647  0.0206 -0.0590 -0.1051
  154POPX   NC3 1837  26.945   5.940   8.497  0.0454 -0.0185 -0.0724
  154POPX   PO4 1838  27.084   6.107   8.133  0.3340  0.1716  0.0219
  154POPX   GL1 1839  26.994   6.364   7.776  0.0317  0.1489  0.3192
  154POPX   GL2 1840  27.071   6.562   7.810 -0.4339 -0.3798 -0.0551
  154POPX   C1A 1841  26.890   6.224   7.383  0.0747  0.0140 -0.0785
  154POPX   D2A 1842  26.756   6.214   6.904  0.0464  0.0079  0.1187
  154POPX   C3A 1843  26.931   6.128   6.452  0.0412  0.0564  0.2928
  154POPX   C4A 1844  27.021   5.941   5.965 -0.0254 -0.0007 -0.2513
  154POPX   C1B 1845  26.882   6.682   7.510  0.0489  0.0358 -0.1767
  154POPX   C2B 1846  27.037   6.680   7.130  0.0657  0.0790  0.1070
  154POPX   C3B 1847  27.026   6.620   6.659  0.2591 -0.0058  0.0633
  154POPX   C4B 1848  27.358   6.575   6.326 -0.0428  0.2685  0.2274
  155POPX   NC3 1849  18.663   9.123   7.753 -0.2450 -0.1226 -0.1677
  155POPX   PO4 1850  18.301   9.092   7.503  0.0268  0.0376 -0.3256
  155POPX   GL1 1851  18.451   9.076   7.113  0.0021  0.1410 -0.0324
  155POPX   GL2 1852  18.497   8.821   7.043  0.4216 -0.0689 -0.0885
  155POPX   C1A 1853  18.291   9.210   6.734  0.0015 -0.2390 -0.1399
  155POPX   D2A 1854  18.448   9.196   6.285 -0.0243 -0.0375 -0.1052
  155POPX   C3A 1855  18.632   9.396   5.873 -0.0534  0.0104 -0.1765
  155POPX   C4A 1856  18.741   9.680   5.435 -0.4680 -0.0405 -0.2117
  155POPX   C1B 1857  18.652   8.932   6.715 -0.1477  0.0971 -0.3311
  155POPX   C2B 1858  18.729   8.851   6.335  0.0470  0.0022 -0.1182
  155POPX   C3B 1859  18.680   8.865   5.836  0.0200 -0.1644 -0.0030
  155POPX   C4B 1860  18.449   8.662   5.453  0.0970  0.1753  0.1501
  156POPX   NC3 1861   8.510  17.497   7.806  0.1025 -0.0742 -0.1503
  156POPX   PO4 1862   8.720  17.736   7.677 -0.0578 -0.2366 -0.0411
  156POPX   GL1 1863   8.877  17.889   7.347 -0.0237  0.2005  0.1374
  156POPX   GL2 1864   9.040  17.728   7.246 -0.1339 -0.0247  0.2000
  156POPX   C1A 1865   9.257  18.129   7.173  0.2495  0.2376 -0.1802
  156POPX   D2A 1866   9.436  18.572   7.051  0.0548 -0.0553 -0.1523
  156POPX   C3A 1867   9.353  18.783   6.673  0.0751  0.0326  0.2988
  156POPX   C4A 1868   9.175  18.839   6.219  0.1579 -0.0455 -0.0262
  156POPX   C1B 1869   8.996  17.858   6.893 -0.1861 -0.1596  0.2406
  156POPX   C2B 1870   8.941  17.965   6.511 -0.2004 -0.3291  0.2619
  156POPX   C3B 1871   8.808  17.987   6.044  0.1450 -0.0063 -0.0636
  156POPX   C4B 1872   8.731  17.779   5.581 -0.3224  0.0342  0.1765
  157POPX   NC3 1873  10.746  24.004   7.353  0.0449  0.0978 -0.1473
  157POPX   PO4 1874  10.957  23.725   7.571 -0.4168 -0.3307  0.0411
  157POPX   GL1 1875  10.899  23.372   7.373 -0.0842  0.1612  0.1665
  157POPX   GL2 1876  11.199  23.327   7.435  0.1609 -0.1538  0.1580
  157POPX   C1A 1877  10.588  23.136   7.059  0.0461  0.0055  0.0046
  157POPX   D2A 1878  10.613  22.930   6.577  0.1584  0.0980 -0.0288
  157POPX   C3A 1879  10.611  22.967   6.084  0.0522  0.3698  0.0076
  157POPX   C4A 1880  10.551  23.132   5.637 -0.2262  0.1070 -0.1351
  157POPX   C1B 1881  11.274  23.214   7.063 -0.4367  0.2113 -0.3120
  157POPX   C2B 1882  11.302  23.082   6.697 -0.0762 -0.1757  0.0400
  157POPX   C3B 1883  11.304  22.832   6.280 -0.0996  0.1423  0.1225
  157POPX   C4B 1884  11.454  22.952   5.844 -0.3106 -0.2659 -0.3780
  158POPX   NC3 1885  22.688  25.390   7.310 -0.4656  0.0609  0.2038
  158POPX   PO4 1886  22.935  25.589   7.062  0.2772 -0.0725 -0.1253
  158POPX   GL1 1887  22.847  25.885   6.700  0.0704 -0.0307 -0.5725
  158POPX   GL2 1888  22.600  25.728   6.683  0.2061  0.2630 -0.3124
  158POPX   C1A 1889  22.796  26.009   6.276 -0.2201  0.1412  0.0994
  158POPX   D2A 1890  22.924  26.012   5.781 -0.0310 -0.0807  0.2943
  158POPX   C3A 1891  22.887  26.040   5.297 -0.1789 -0.2825 -0.2926
  158POPX   C4A 1892  23.291  26.010   4.957 -0.0725  0.1595 -0.3986
  158POPX   C1B 1893  22.537  25.541   6.375 -0.1496  0.1854  0.0488
  158POPX   C2B 1894  22.551  25.678   5.979 -0.0151  0.0778  0.1999
  158POPX   C3B 1895  22.581  25.631   5.490  0.1775  0.0343  0.0342
  158POPX   C4B 1896  22.436  25.909   5.064  0.2334 -0.0536 -0.2422
  159POPX   NC3 1897   9.107   0.103   8.371 -0.3656  0.1581  0.1692
  159POPX   PO4 1898   9.152  -0.270   8.181 -0.4532  0.1859 -0.1063
  159POPX   GL1 1899   9.278  -0.342   7.813 -0.2645  0.0490 -0.3022
  159POPX   GL2 1900   9.192  -0.603   7.733 -0.2090 -0.0605  0.2211
  159POPX   C1A 1901   9.120  -0.173   7.439  0.3881  0.0807 -0.0117
  159POPX   D2A 1902   8.819   0.189   7.138  0.2573 -0.2228 -0.1673
  159POPX   C3A 1903   8.833   0.244   6.680 -0.1085 -0.0027  0.1968
  159POPX   C4A 1904   8.793   0.121   6.187 -0.0162  0.1096 -0.2254
  159POPX   C1B 1905   9.084  -0.648   7.375  0.2129  0.1952  0.2176
  159POPX   C2B 1906   9.117  -0.661   6.946 -0.2515 -0.1354  0.1834
  159POPX   C3B 1907   8.951  -0.866   6.511 -0.0962 -0.1876 -0.1624
  159POPX   C4B 1908   8.681  -1.054   6.179 -0.0266  0.0569  0.0874
  160POPX   NC3 1909  24.141  24.479   7.672 -0.2353  0.1885 -0.0834
  160POPX   PO4 1910  24.209  24.245   7.331 -0.0813  0.2519  0.1575
  160POPX   GL1 1911  24.178  24.426   6.891  0.0176  0.2272  0.3452
  160POPX   GL2 1912  24.292  24.184   6.776  0.0373 -0.3459 -0.1757
  160POPX   C1A 1913  24.151  24.612   6.518  0.0603  0.3230 -0.1848
  160POPX   D2A 1914  24.025  24.735   6.021 -0.0585  0.0878 -0.0360
  160POPX   C3A 1915  24.069  24.537   5.580 -0.1231 -0.1180  0.0943
  160POPX   C4A 1916  24.456  24.867   5.431 -0.1672 -0.0043  0.1218
  160POPX   C1B 1917  24.227  24.167   6.413 -0.2016  0.1175  0.1820
  160POPX   C2B 1918  24.016  24.236   6.078 -0.0323  0.0368 -0.2593
  160POPX   C3B 1919  23.878  24.084   5.621  0.1925 -0.1114 -0.1377
  160POPX   C4B 1920  23.639  24.006   5.147 -0.0716  0.1718  0.1346
  161POPX   NC3 1921   0.421   0.006   7.885 -0.0164 -0.3804 -0.0125
  161POPX   PO4 1922   0.222   0.275   7.615  0.4873  0.0847 -0.1640
  161POPX   GL1 1923   0.292   0.293   7.246 -0.0574 -0.0159  0.0522
  161POPX   GL2 1924   0.046   0.235   7.143  0.0028  0.1685  0.0952
  161POPX   C1A 1925   0.696   0.277   7.042  0.0576  0.1832 -0.2268
  161POPX   D2A 1926   0.709   0.246   6.525 -0.1048  0.0612  0.0710
  161POPX   C3A 1927   0.635  -0.147   6.171 -0.1740 -0.0574 -0.1351
  161POPX   C4A 1928   0.803  -0.376   5.758  0.0900  0.0797 -0.1593
  161POPX   C1B 1929  -0.198   0.391   6.914  0.1742  0.2875 -0.0800
  161POPX   C2B 1930  -0.339   0.541   6.531 -0.7885  0.2221 -0.2337
  161POPX   C3B 1931  -0.295   0.617   6.060 -0.0330  0.0074  0.0120
  161POPX   C4B 1932  -0.229   0.482   5.572  0.0169  0.0132  0.4492
  162POPX   NC3 1933  17.197  20.115   7.710 -0.2083 -0.0632  0.0136
  162POPX   PO4 1934  16.919  20.056   7.441  0.0047 -0.0456  0.1985
  162POPX   GL1 1935  17.042  19.736   7.118  0.0764 -0.1366  0.3306
  162POPX   GL2 1936  17.021  19.539   7.296 -0.2161  0.2838 -0.3545
  162POPX   C1A 1937  17.083  19.623   6.713 -0.0538 -0.2005 -0.2661
  162POPX   D2A 1938  17.122  19.757   6.266 -0.0262  0.0164  0.0688
  162POPX   C3A 1939  17.174  19.515   5.902  0.0394 -0.1311 -0.0040
  162POPX   C4A 1940  17.402  19.347   5.529 -0.0686 -0.0102  0.1622
  162POPX   C1B 1941  16.882  19.298   7.046  0.0009 -0.1319 -0.0146
  162POPX   C2B 1942  16.730  19.137   6.721  0.2723  0.2392 -0.0618
  162POPX   C3B 1943  16.656  19.178   6.203  0.3549 -0.0240 -0.2912
  162POPX   C4B 1944  16.439  19.408   5.824  0.1231 -0.2488  0.2714
  163POPX   NC3 1945   1.516  26.021   8.486  0.3102 -0.0559 -0.2883
  163POPX   PO4 1946   1.828  25.869   8.294  0.2766  0.2249  0.2020
  163POPX   GL1 1947   1.781  25.942   7.924  0.2225  0.2832  0.0806
  163POPX   GL2 1948   1.593  26.101   7.842 -0.0906  0.2706  0.1368
  163POPX   C1A 1949   2.046  25.947   7.552  0.1197  0.1597  0.1994
  163POPX   D2A 1950   2.103  25.982   7.074  0.2020 -0.0560  0.1057
  163POPX   C3A 1951   2.106  25.932   6.564  0.0711 -0.1570  0.1249
  163POPX   C4A 1952   2.223  25.714   6.107  0.1026 -0.2152  0.1888
  163POPX   C1B 1953   1.613  26.188   7.503 -0.2306 -0.1511 -0.0431
  163POPX   C2B 1954   1.571  26.216   7.061  0.2202 -0.0576 -0.1114
  163POPX   C3B 1955   1.669  26.092   6.650 -0.0842  0.3078  0.0218
  163POPX   C4B 1956   1.795  25.978   6.177  0.1653  0.0371  0.3188
  164POPX   NC3 1957  16.010  19.212   7.915  0.2038  0.3605 -0.0084
  164POPX   PO4 1958  15.651  19.389   7.864  0.0129  0.2020  0.0575
  164POPX   GL1 1959  15.652  19.449   7.504 -0.1461  0.1993 -0.5523
  164POPX   GL2 1960  15.458  19.552   7.383 -0.0453  0.3202 -0.0349
  164POPX   C1A 1961  15.771  19.272   7.095  0.2941  0.1483  0.0514
  164POPX   D2A 1962  15.598  19.327   6.602 -0.2381 -0.2058 -0.0788
  164POPX   C3A 1963  15.666  19.420   6.135  0.2580  0.1165 -0.3399
  164POPX   C4A 1964  15.773  19.575   5.683 -0.0191 -0.0152  0.0460
  164POPX   C1B 1965  15.586  19.641   7.025  0.2310 -0.1243 -0.0711
  164POPX   C2B 1966  15.592  19.849   6.617  0.2156 -0.0388 -0.0637
  164POPX   C3B 1967  15.518  19.887   6.160 -0.2351  0.3591  0.3265
  164POPX   C4B 1968  15.145  19.996   5.935 -0.0244 -0.0255  0.3757
  165POPX   NC3 1969  15.252   7.110   7.275  0.1557 -0.1401  0.2542
  165POPX   PO4 1970  14.996   6.791   7.306 -0.1294  0.0164  0.0021
  165POPX   GL1 1971  14.914   6.478   7.150 -0.4939  0.2743 -0.2123
  165POPX   GL2 1972  14.913   6.235   7.272 -0.0191 -0.3827  0.1606
  165POPX   C1A 1973  14.728   6.313   6.793  0.0650  0.1691  0.2128
  165POPX   D2A 1974  14.603   6.140   6.305  0.4936 -0.1518 -0.1308
  165POPX   C3A 1975  14.287   6.377   6.321  0.1987 -0.2356  0.0497
  165POPX   C4A 1976  14.166   6.436   6.825  0.1159  0.0619  0.1578
  165POPX   C1B 1977  14.829   5.962   7.085  0.0822  0.2247  0.1839
  165POPX   C2B 1978  14.892   5.780   6.702 -0.1791 -0.0644 -0.0736
  165POPX   C3B 1979  14.983   5.851   6.196 -0.4449 -0.4077  0.0439
  165POPX   C4B 1980  15.304   5.865   5.749  0.0699  0.2104  0.1064
  166POPX   NC3 1981  13.996  20.496   7.766 -0.1340  0.2854  0.0753
  166POPX   PO4 1982  14.201  20.755   7.504  0.1205 -0.1459 -0.2374
  166POPX   GL1 1983  14.384  20.782   7.140  0.0016 -0.1972  0.0225
  166POPX   GL2 1984  14.635  20.667   7.146 -0.0863 -0.1903 -0.1019
  166POPX   C1A 1985  14.008  20.674   6.848  0.0245  0.3904 -0.4334
  166POPX   D2A 1986  13.866  20.617   6.385 -0.1275 -0.2781 -0.0641
  166POPX   C3A 1987  13.826  20.498   5.928 -0.2124 -0.2616 -0.1432
  166POPX   C4A 1988  14.009  20.471   5.467 -0.0647  0.0986 -0.1859
  166POPX   C1B 1989  14.992  20.834   7.025  0.0480 -0.2368 -0.1754
  166POPX   C2B 1990  15.325  20.811   6.746  0.2846  0.1731  0.0406
  166POPX   C3B 1991  15.586  20.533   6.574 -0.0974  0.2364 -0.3700
  166POPX   C4B 1992  15.937  20.172   6.519 -0.4945 -0.0992 -0.2185
  167POPX   NC3 1993  18.391  11.133   7.035 -0.0131  0.0796 -0.1527
  167POPX   PO4 1994  18.453  10.848   7.275 -0.0612 -0.2421  0.0145
  167POPX   GL1 1995  18.744  10.718   7.060  0.1256 -0.0636  0.2830
  167POPX   GL2 1996  18.789  11.005   6.949 -0.3355  0.1484 -0.2419
  167POPX   C1A 1997  18.908  10.510   6.619 -0.2229  0.4550  0.0224
  167POPX   D2A 1998  19.027  10.156   6.275  0.0605  0.2089 -0.0679
  167POPX   C3A 1999  19.364   9.964   6.016 -0.0659 -0.0567  0.0250
  167POPX   C4A 2000  19.231   9.781   5.576  0.0316 -0.1837 -0.1825
  167POPX   C1B 2001  18.887  10.989   6.628 -0.0498  0.1245  0.1699
  167POPX   C2B 2002  18.858  10.902   6.197  0.0171 -0.2643 -0.1516
  167POPX   C3B 2003  18.859  11.132   5.823  0.1766  0.1194 -0.0617
  167POPX   C4B 2004  18.762  11.423   5.368 -0.1164  0.1725 -0.0577
  168POPX   NC3 2005  17.497   8.732   7.072 -0.1722 -0.1428  0.0862
  168POPX   PO4 2006  17.644   8.460   6.832  0.1889  0.0360  0.0892
  168POPX   GL1 2007  17.582   8.447   6.403  0.0795  0.1993  0.1216
  168POPX   GL2 2008  17.437   8.715   6.479  0.0032 -0.0288 -0.1062
  168POPX   C1A 2009  17.626   8.462   5.973 -0.0259  0.1644 -0.2490
  168POPX   D2A 2010  17.554   8.422   5.452  0.0887 -0.3270  0.0275
  168POPX   C3A 2011  17.235   8.666   5.244  0.0752 -0.1320  0.1655
  168POPX   C4A 2012  17.003   9.140   5.297 -0.0729 -0.2418  0.3275
  168POPX   C1B 2013  17.380   8.849   6.132 -0.2104 -0.1455 -0.0983
  168POPX   C2B 2014  17.482   8.915   5.739 -0.2846 -0.1114 -0.1282
  168POPX   C3B 2015  17.595   9.020   5.291 -0.4367  0.2943  0.3320
  168POPX   C4B 2016  17.811   9.114   4.813 -0.2371  0.0161 -0.0682
  169POPX   NC3 2017   1.463  22.841   8.025 -0.1810  0.2891 -0.0725
  169POPX   PO4 2018   1.764  23.095   7.953  0.4698 -0.0313 -0.1400
  169POPX   GL1 2019   1.932  23.293   7.668  0.3752  0.0812 -0.0375
  169POPX   GL2 2020   2.252  23.337   7.777 -0.0006 -0.1270 -0.1774
  169POPX   C1A 2021   1.838  23.066   7.338 -0.2471  0.3512  0.4840
  169POPX   D2A 2022   1.671  22.703   7.094 -0.1316  0.4933 -0.0887
  169POPX   C3A 2023   1.757  22.611   6.630  0.1155  0.0941 -0.1876
  169POPX   C4A 2024   1.815  22.765   6.186 -0.2548  0.0558 -0.2507
  169POPX   C1B 2025   2.504  23.290   7.558  0.0538  0.5103  0.0937
  169POPX   C2B 2026   2.735  23.135   7.288 -0.1094  0.0684 -0.0524
  169POPX   C3B 2027   3.060  23.034   6.872 -0.1157  0.0364 -0.1445
  169POPX   C4B 2028   3.141  22.787   6.431  0.1270  0.1227  0.3783
  170POPX   NC3 2029   3.961  11.359   8.158  0.2568  0.1375  0.0348
  170POPX   PO4 2030   3.733  11.298   7.793 -0.4140 -0.1062 -0.0178
  170POPX   GL1 2031   3.841  11.524   7.453  0.1219  0.1724 -0.3093
  170POPX   GL2 2032   3.696  11.266   7.231  0.1188  0.1377  0.0353
  170POPX   C1A 2033   3.674  11.863   7.228 -0.1444  0.0839 -0.0526
  170POPX   D2A 2034   3.333  12.112   6.903  0.0017  0.2483 -0.1846
  170POPX   C3A 2035   3.471  12.182   6.527  0.1954  0.3405 -0.2333
  170POPX   C4A 2036   3.752  12.271   6.170  0.0100 -0.1205 -0.0559
  170POPX   C1B 2037   3.542  11.451   6.899  0.0928 -0.1423 -0.3029
  170POPX   C2B 2038   3.339  11.642   6.606 -0.2839 -0.1524 -0.1298
  170POPX   C3B 2039   3.229  11.921   6.174  0.1517 -0.1859 -0.2864
  170POPX   C4B 2040   3.339  12.292   5.809  0.4795  0.0678 -0.0534
  171POPX   NC3 2041  24.631   5.521   8.310 -0.2816 -0.0036 -0.3237
  171POPX   PO4 2042  24.495   5.921   8.183  0.1496  0.0415 -0.4145
  171POPX   GL1 2043  24.276   6.060   7.874  0.3613  0.5432 -0.2317
  171POPX   GL2 2044  24.030   6.013   7.793 -0.1123 -0.3851  0.1139
  171POPX   C1A 2045  24.553   5.906   7.550  0.1424 -0.0192  0.0147
  171POPX   D2A 2046  24.653   6.198   7.143  0.0315 -0.1954  0.1120
  171POPX   C3A 2047  24.700   6.206   6.676  0.0751  0.1709 -0.1299
  171POPX   C4A 2048  24.627   6.179   6.209 -0.2935 -0.3557 -0.1958
  171POPX   C1B 2049  24.131   6.044   7.426  0.0910  0.0615 -0.1660
  171POPX   C2B 2050  24.199   6.092   7.068  0.1256 -0.1153 -0.3696
  171POPX   C3B 2051  24.229   6.082   6.572 -0.0035  0.2352  0.0612
  171POPX   C4B 2052  24.201   6.157   6.103  0.2097  0.0387 -0.0432
  172POPX   NC3 2053   7.626  13.890   7.547  0.1415  0.0015  0.0425
  172POPX   PO4 2054   7.955  13.783   7.347 -0.0044 -0.0562  0.0079
  172POPX   GL1 2055   8.021  13.821   7.005 -0.0561 -0.0446 -0.1345
  172POPX   GL2 2056   8.280  13.720   6.899  0.1402  0.2119  0.0477
  172POPX   C1A 2057   7.884  13.878   6.596  0.1169  0.0122 -0.0183
  172POPX   D2A 2058   7.916  13.791   6.114  0.1792  0.1327 -0.1314
  172POPX   C3A 2059   8.127  13.927   5.719 -0.3969 -0.1998  0.1036
  172POPX   C4A 2060   8.315  13.770   5.290  0.1843 -0.1139 -0.0049
  172POPX   C1B 2061   8.309  13.603   6.566  0.0152 -0.3884 -0.1583
  172POPX   C2B 2062   8.432  13.622   6.171  0.2143  0.1303  0.0775
  172POPX   C3B 2063   8.619  13.721   5.753  0.4222  0.2795  0.0757
  172POPX   C4B 2064   8.833  13.883   5.345  0.0207  0.2287  0.0042
  173POPX   NC3 2065  16.578   1.046   8.201 -0.3053 -0.2316  0.0246
  173POPX   PO4 2066  16.869   0.889   8.050  0.0737  0.1170 -0.0268
  173POPX   GL1 2067  16.889   0.663   7.666 -0.2591 -0.0246 -0.1341
  173POPX   GL2 2068  17.070   0.797   7.531  0.3030  0.0516  0.0021
  173POPX   C1A 2069  17.154   0.342   7.548 -0.1272  0.1432 -0.0614
  173POPX   D2A 2070  17.230   0.073   7.099 -0.4370 -0.0083 -0.2783
  173POPX   C3A 2071  17.195  -0.058   6.660 -0.1755  0.1254 -0.0479
  173POPX   C4A 2072  17.416  -0.116   6.196 -0.3167 -0.2536 -0.4162
  173POPX   C1B 2073  17.028   0.646   7.182  0.1536 -0.0451 -0.0328
  173POPX   C2B 2074  17.047   0.528   6.779  0.1706 -0.1911  0.0342
  173POPX   C3B 2075  17.059   0.422   6.337  0.0855 -0.0024 -0.0730
  173POPX   C4B 2076  17.151   0.280   5.912 -0.2020  0.1383 -0.1820
  174POPX   NC3 2077   4.111  16.618   7.691  0.1186  0.2818  0.1804
  174POPX   PO4 2078   4.410  16.833   7.529 -0.1035  0.1471  0.2177
  174POPX   GL1 2079   4.500  16.636   7.131  0.1154 -0.2540  0.1321
  174POPX   GL2 2080   4.642  16.816   7.117 -0.3934 -0.0803  0.0354
  174POPX   C1A 2081   4.354  16.475   6.752 -0.3670 -0.0590 -0.3312
  174POPX   D2A 2082   4.258  16.561   6.300 -0.3066 -0.2771  0.0217
  174POPX   C3A 2083   4.486  16.622   5.902  0.1299  0.0485 -0.1031
  174POPX   C4A 2084   4.201  16.753   5.557  0.0967 -0.0855 -0.0737
  174POPX   C1B 2085   4.824  16.766   6.767 -0.3077 -0.1985 -0.5516
  174POPX   C2B 2086   4.854  16.633   6.402  0.0389 -0.0241  0.2269
  174POPX   C3B 2087   5.261  16.538   6.152 -0.0683 -0.2743  0.3149
  174POPX   C4B 2088   5.662  16.222   6.123  0.2744  0.2641  0.0146
  175POPX   NC3 2089  23.693  20.395   7.583 -0.0060  0.2031  0.0127
  175POPX   PO4 2090  23.697  20.508   7.174  0.0893 -0.2881  0.0019
  175POPX   GL1 2091  23.763  20.250   6.866  0.0089  0.0157  0.3530
  175POPX   GL2 2092  23.570  20.028   6.964  0.0055 -0.1561 -0.2028
  175POPX   C1A 2093  23.684  20.185   6.395 -0.0127 -0.2793 -0.0395
  175POPX   D2A 2094  23.882  20.232   6.009 -0.2012  0.1293  0.0684
  175POPX   C3A 2095  24.372  20.136   5.866 -0.1658 -0.1094  0.2203
  175POPX   C4A 2096  24.595  19.724   5.882 -0.5165 -0.1919  0.1189
  175POPX   C1B 2097  23.519  19.885   6.662 -0.0961  0.2210  0.0179
  175POPX   C2B 2098  23.519  19.702   6.227 -0.1039  0.1707 -0.0650
  175POPX   C3B 2099  23.612  19.922   5.779  0.0167 -0.0185 -0.1795
  175POPX   C4B 2100  23.494  20.333   5.478  0.1121  0.0932  0.1339
  176POPX   NC3 2101  22.495  16.693   7.240  0.0393  0.0754 -0.1331
  176POPX   PO4 2102  22.758  16.409   7.184 -0.1324  0.1650  0.2556
  176POPX   GL1 2103  22.877  16.230   6.872 -0.0957  0.0727  0.0916
  176POPX   GL2 2104  23.068  16.362   6.776 -0.0021 -0.1093 -0.0646
  176POPX   C1A 2105  22.842  16.142   6.456  0.1638  0.2590  0.0589
  176POPX   D2A 2106  22.926  16.175   6.024 -0.0870 -0.0481  0.0396
  176POPX   C3A 2107  22.873  16.212   5.527 -0.1515  0.1068 -0.1939
  176POPX   C4A 2108  22.612  16.331   5.177  0.1318 -0.0848 -0.2668
  176POPX   C1B 2109  23.331  16.189   6.550  0.2018  0.2855  0.2841
  176POPX   C2B 2110  23.310  15.886   6.327 -0.1717  0.2337  0.1815
  176POPX   C3B 2111  23.367  15.617   5.952  0.0120 -0.0124  0.4377
  176POPX   C4B 2112  23.566  15.328   5.593 -0.0893  0.3065 -0.0429
  177POPX   NC3 2113  13.198  23.464   8.038  0.2160  0.0715 -0.1388
  177POPX   PO4 2114  12.934  23.611   7.790 -0.4269  0.1116  0.1120
  177POPX   GL1 2115  12.972  23.943   7.492  0.4442 -0.1683 -0.1346
  177POPX   GL2 2116  13.110  23.736   7.320 -0.0375 -0.2817 -0.1417
  177POPX   C1A 2117  13.374  24.144   7.377 -0.0713 -0.0089 -0.0274
  177POPX   D2A 2118  13.497  24.539   7.062 -0.0956  0.1655 -0.0419
  177POPX   C3A 2119  13.477  24.648   6.626 -0.0083 -0.1797 -0.2577
  177POPX   C4A 2120  13.538  24.844   6.145 -0.1532  0.0283  0.1207
  177POPX   C1B 2121  13.185  23.482   7.069  0.1109 -0.1589  0.1523
  177POPX   C2B 2122  13.211  23.301   6.698 -0.0873 -0.0870 -0.3851
  177POPX   C3B 2123  13.128  23.229   6.289  0.1677 -0.0270  0.2228
  177POPX   C4B 2124  12.989  23.131   5.788 -0.2846 -0.0210  0.3358
  178POPX   NC3 2125   0.872  15.112   8.153  0.0813  0.0080 -0.2086
  178POPX   PO4 2126   1.022  15.089   7.769 -0.1136 -0.1195 -0.0046
  178POPX   GL1 2127   1.032  14.783   7.459 -0.2277  0.2449  0.2035
  178POPX   GL2 2128   0.861  14.894   7.254  0.2663 -0.2333 -0.2559
  178POPX   C1A 2129   1.367  14.884   7.183 -0.0118 -0.1771 -0.0121
  178POPX   D2A 2130   1.592  15.139   6.788 -0.0209 -0.1018 -0.1063
  178POPX   C3A 2131   1.737  15.230   6.379  0.0179  0.1536  0.1958
  178POPX   C4A 2132   1.912  15.284   5.905 -0.0521  0.2631  0.0418
  178POPX   C1B 2133   0.939  14.933   6.912  0.0503 -0.0934 -0.2395
  178POPX   C2B 2134   1.124  14.761   6.646 -0.3288  0.1032 -0.1496
  178POPX   C3B 2135   1.297  14.519   6.262  0.1106  0.0692  0.2777
  178POPX   C4B 2136   1.096  14.558   5.764 -0.3493  0.0953  0.0388
  179POPX   NC3 2137   0.896   2.461   7.445 -0.1273 -0.1233  0.0143
  179POPX   PO4 2138   0.705   2.115   7.444 -0.0944  0.0534  0.2153
  179POPX   GL1 2139   0.614   1.917   7.067 -0.0117  0.0340  0.5491
  179POPX   GL2 2140   0.432   2.122   6.993  0.1439 -0.1590 -0.2712
  179POPX   C1A 2141   0.794   1.753   6.734  0.1791  0.1605  0.2379
  179POPX   D2A 2142   0.865   1.484   6.273 -0.2162  0.5084  0.1380
  179POPX   C3A 2143   0.921   1.361   5.848 -0.2258  0.0935  0.0268
  179POPX   C4A 2144   0.943   1.363   5.394  0.3850  0.2067 -0.1840
  179POPX   C1B 2145   0.379   2.318   6.678  0.7527  0.2080  0.1716
  179POPX   C2B 2146   0.442   2.421   6.280  0.0505 -0.2495 -0.0575
  179POPX   C3B 2147   0.641   2.488   5.836 -0.2842  0.1431  0.1436
  179POPX   C4B 2148   0.666   2.335   5.314  0.2233 -0.2388  0.0594
  180POPX   NC3 2149  15.681  27.592   8.695  0.0559  0.0290 -0.1155
  180POPX   PO4 2150  15.729  27.662   8.282  0.3017  0.3243  0.0707
  180POPX   GL1 2151  15.411  27.510   8.045  0.0328  0.0380  0.0059
  180POPX   GL2 2152  15.090  27.481   8.057  0.1690  0.1505  0.1977
  180POPX   C1A 2153  15.529  27.458   7.631  0.1529 -0.1332 -0.1431
  180POPX   D2A 2154  15.772  27.174   7.364 -0.0005 -0.2497 -0.1223
  180POPX   C3A 2155  15.831  27.169   6.912  0.0905 -0.0427 -0.2404
  180POPX   C4A 2156  15.854  27.226   6.409  0.4539 -0.1019  0.0230
  180POPX   C1B 2157  14.934  27.468   7.730  0.2106  0.0712  0.0981
  180POPX   C2B 2158  14.719  27.551   7.338 -0.0218 -0.0243 -0.2032
  180POPX   C3B 2159  14.967  27.701   6.909 -0.1618 -0.1274 -0.2478
  180POPX   C4B 2160  14.861  27.868   6.470  0.1204  0.0345  0.2232
  181POPX   NC3 2161   3.729   2.660   7.935  0.0101  0.2229  0.0677
  181POPX   PO4 2162   3.673   2.964   7.672  0.0330  0.0289 -0.2265
  181POPX   GL1 2163   3.539   2.769   7.335  0.1659 -0.0689 -0.0796
  181POPX   GL2 2164   3.816   2.823   7.186  0.3291  0.1541  0.1973
  181POPX   C1A 2165   3.215   2.805   7.020 -0.2432 -0.1354  0.0579
  181POPX   D2A 2166   3.172   2.770   6.514  0.3036 -0.0743 -0.2206
  181POPX   C3A 2167   2.867   2.915   6.264 -0.0605  0.3817  0.0439
  181POPX   C4A 2168   2.676   3.225   5.892  0.2961 -0.3690  0.2608
  181POPX   C1B 2169   3.788   3.051   6.897  0.1293 -0.0984 -0.1739
  181POPX   C2B 2170   3.702   3.158   6.496 -0.3073 -0.2771  0.0691
  181POPX   C3B 2171   3.739   3.292   6.010  0.2094  0.0723  0.0252
  181POPX   C4B 2172   3.612   3.312   5.548  0.0424  0.1468 -0.2076
  182POPX   NC3 2173   0.021  25.005   7.661  0.1910 -0.1652  0.2388
  182POPX   PO4 2174   0.244  25.329   7.723  0.0030  0.1337 -0.1565
  182POPX   GL1 2175   0.534  25.453   7.357  0.2491 -0.0219 -0.2337
  182POPX   GL2 2176   0.471  25.171   7.272  0.1496 -0.0622 -0.1978
  182POPX   C1A 2177   0.769  25.651   7.060  0.3805  0.0816  0.1476
  182POPX   D2A 2178   0.487  25.825   6.699 -0.0571 -0.0130  0.3288
  182POPX   C3A 2179   0.253  25.544   6.460 -0.0688  0.1043  0.2689
  182POPX   C4A 2180  -0.180  25.493   6.169  0.2388 -0.0000 -0.4178
  182POPX   C1B 2181   0.616  25.234   6.932 -0.1577  0.7184  0.1761
  182POPX   C2B 2182   0.786  25.419   6.644 -0.0882  0.0614 -0.3111
  182POPX   C3B 2183   0.887  25.498   6.180  0.0682 -0.0122  0.0777
  182POPX   C4B 2184   1.163  25.541   5.806 -0.1274  0.0893 -0.1479
  183POPX   NC3 2185   3.190   2.899   7.544  0.0787 -0.3010  0.2933
  183POPX   PO4 2186   3.227   2.533   7.649 -0.3665 -0.1337  0.1712
  183POPX   GL1 2187   3.182   2.177   7.296 -0.0704  0.0538  0.0785
  183POPX   GL2 2188   3.410   2.288   7.293 -0.2431  0.3559  0.1291
  183POPX   C1A 2189   3.164   2.286   6.900  0.1689  0.2133  0.0426
  183POPX   D2A 2190   3.118   2.273   6.317 -0.0771  0.1699  0.1070
  183POPX   C3A 2191   3.068   2.592   5.981 -0.0459 -0.1262  0.1012
  183POPX   C4A 2192   2.766   2.839   5.667  0.1754 -0.2839 -0.2677
  183POPX   C1B 2193   3.618   2.460   6.992 -0.0932 -0.4977  0.1238
  183POPX   C2B 2194   3.580   2.597   6.613  0.1195  0.2045  0.2794
  183POPX   C3B 2195   3.548   2.668   6.165  0.2314 -0.3077  0.1133
  183POPX   C4B 2196   3.515   2.679   5.655  0.1634  0.1369  0.1417
  184POPX   NC3 2197  24.358  23.408   7.705 -0.3007 -0.2281  0.1366
  184POPX   PO4 2198  24.399  23.266   7.325  0.0960  0.0281 -0.1330
  184POPX   GL1 2199  24.486  23.435   6.965  0.2538 -0.0271 -0.0567
  184POPX   GL2 2200  24.191  23.477   6.973  0.0531  0.3093 -0.3546
  184POPX   C1A 2201  24.735  23.725   6.753  0.0222 -0.1485 -0.0318
  184POPX   D2A 2202  24.744  24.179   6.460  0.0422 -0.1112 -0.2714
  184POPX   C3A 2203  25.000  24.438   6.163 -0.4011  0.1862 -0.2339
  184POPX   C4A 2204  25.245  24.530   5.744  0.0763  0.0202 -0.5202
  184POPX   C1B 2205  24.082  23.217   6.752  0.4765 -0.0984  0.4272
  184POPX   C2B 2206  24.181  23.251   6.372  0.1951 -0.1599  0.1420
  184POPX   C3B 2207  24.389  23.313   5.931  0.0467 -0.0133  0.1993
  184POPX   C4B 2208  24.522  23.117   5.481  0.0379 -0.1083  0.0872
  185POPX   NC3 2209  14.402  15.113   7.599 -0.2482  0.2953  0.0180
  185POPX   PO4 2210  14.779  15.269   7.564  0.0672 -0.0784  0.2656
  185POPX   GL1 2211  14.987  15.371   7.233 -0.3205  0.0400  0.1281
  185POPX   GL2 2212  15.104  15.136   7.185  0.0141 -0.1748  0.1690
  185POPX   C1A 2213  15.185  15.523   6.849  0.2512 -0.0169  0.2241
  185POPX   D2A 2214  15.218  15.578   6.366  0.1374 -0.2187 -0.3039
  185POPX   C3A 2215  15.360  15.456   5.921  0.2359 -0.0709  0.0001
  185POPX   C4A 2216  15.606  15.386   5.479 -0.2415 -0.2933  0.2824
  185POPX   C1B 2217  14.950  15.078   6.855  0.3321 -0.2694 -0.2146
  185POPX   C2B 2218  14.978  15.118   6.436 -0.0053  0.2836 -0.1600
  185POPX   C3B 2219  14.995  15.163   5.967  0.2184 -0.0666 -0.0198
  185POPX   C4B 2220  15.138  15.178   5.443 -0.0066 -0.1070 -0.0971
  186POPX   NC3 2221   6.464  11.534   7.575  0.2074 -0.1489  0.1092
  186POPX   PO4 2222   6.791  11.329   7.424  0.2834  0.5651 -0.1382
  186POPX   GL1 2223   6.752  11.263   7.061  0.0953  0.4271  0.1380
  186POPX   GL2 2224   6.456  11.258   7.108  0.1579 -0.0853 -0.2402
  186POPX   C1A 2225   6.878  11.029   6.696  0.2475 -0.1825 -0.1713
  186POPX   D2A 2226   6.979  10.906   6.247 -0.1212  0.2025 -0.0115
  186POPX   C3A 2227   7.019  11.017   5.815  0.0853  0.1756  0.1944
  186POPX   C4A 2228   7.114  11.051   5.307  0.1816 -0.0367  0.1812
  186POPX   C1B 2229   6.462  11.203   6.711  0.0880 -0.1966 -0.0802
  186POPX   C2B 2230   6.384  10.955   6.394  0.1847 -0.0281  0.0179
  186POPX   C3B 2231   6.260  10.796   5.960  0.0083  0.0788  0.0254
  186POPX   C4B 2232   6.148  10.679   5.489 -0.1371 -0.0135 -0.2348
  187POPX   NC3 2233  26.534  18.367   7.987  0.0606 -0.0957 -0.4229
  187POPX   PO4 2234  26.306  18.115   7.780 -0.2869  0.0059  0.1902
  187POPX   GL1 2235  26.275  17.991   7.364 -0.1714 -0.1084  0.0515
  187POPX   GL2 2236  26.269  18.281   7.307 -0.0360  0.0735  0.1263
  187POPX   C1A 2237  26.273  17.921   6.926  0.0920  0.1835 -0.0657
  187POPX   D2A 2238  26.147  17.551   6.620 -0.1009  0.1079  0.2250
  187POPX   C3A 2239  26.242  17.530   6.206  0.1105 -0.3886  0.1565
  187POPX   C4A 2240  26.238  17.500   5.732 -0.1240 -0.1202 -0.0635
  187POPX   C1B 2241  26.317  18.400   6.929  0.0841  0.0139  0.2097
  187POPX   C2B 2242  26.094  18.532   6.626  0.0815  0.2688  0.2735
  187POPX   C3B 2243  25.917  18.457   6.143  0.1791  0.1203  0.3461
  187POPX   C4B 2244  25.709  18.256   5.764  0.1430  0.3629  0.1392
  188POPX   NC3 2245  11.870  21.121   7.601 -0.4411  0.0788  0.0925
  188POPX   PO4 2246  11.972  20.932   7.245  0.0488 -0.0284 -0.0187
  188POPX   GL1 2247  11.771  20.986   6.877  0.0952  0.0137  0.2187
  188POPX   GL2 2248  11.509  20.958   7.042  0.0419 -0.3177  0.2908
  188POPX   C1A 2249  11.591  20.944   6.488  0.0031 -0.0497 -0.2624
  188POPX   D2A 2250  11.447  20.859   6.012  0.0468 -0.0381 -0.0438
  188POPX   C3A 2251  11.363  20.390   5.827  0.3186  0.2088  0.0507
  188POPX   C4A 2252  11.165  20.023   5.625 -0.1449 -0.1165  0.2474
  188POPX   C1B 2253  11.257  20.906   6.779 -0.2295  0.0951 -0.1483
  188POPX   C2B 2254  11.010  21.019   6.478  0.1669 -0.2091  0.2156
  188POPX   C3B 2255  10.980  21.008   6.009  0.1519  0.0635 -0.1507
  188POPX   C4B 2256  10.744  20.899   5.643 -0.1326 -0.0431  0.1440
  189POPX   NC3 2257  11.037  15.279   8.070 -0.0387  0.1680 -0.1460
  189POPX   PO4 2258  11.053  15.109   7.682 -0.0608 -0.0724 -0.0451
  189POPX   GL1 2259  11.429  15.278   7.489  0.5289  0.1528 -0.1490
  189POPX   GL2 2260  11.336  15.030   7.330  0.1845  0.0370 -0.1284
  189POPX   C1A 2261  11.199  15.556   7.233  0.1847 -0.1554  0.0104
  189POPX   D2A 2262  10.873  15.658   6.834 -0.2516  0.0329  0.2422
  189POPX   C3A 2263  10.965  15.811   6.443 -0.2057  0.6505  0.1491
  189POPX   C4A 2264  11.154  15.794   5.968  0.1971  0.1631  0.0803
  189POPX   C1B 2265  11.577  15.030   7.061 -0.2468  0.0966 -0.1262
  189POPX   C2B 2266  11.712  15.106   6.683  0.1895  0.0638 -0.3039
  189POPX   C3B 2267  11.607  15.185   6.213 -0.0235 -0.3489  0.0010
  189POPX   C4B 2268  11.680  15.278   5.701  0.3359  0.0327 -0.0303
  190POPX   NC3 2269   3.019   7.327   8.104  0.4356  0.1271 -0.3216
  190POPX   PO4 2270   2.679   7.051   8.169 -0.1761 -0.0303  0.3194
  190POPX   GL1 2271   2.640   6.733   7.856 -0.0656  0.0157 -0.2381
  190POPX   GL2 2272   2.400   6.869   7.786  0.1320  0.0778 -0.3300
  190POPX   C1A 2273   2.741   6.519   7.444 -0.2295  0.0068 -0.0531
  190POPX   D2A 2274   3.003   6.623   7.008  0.3663  0.0194 -0.0641
  190POPX   C3A 2275   3.038   6.934   6.721  0.3515  0.1151 -0.1364
  190POPX   C4A 2276   3.084   7.284   6.456  0.0209  0.4730  0.0904
  190POPX   C1B 2277   2.355   6.751   7.437  0.0727 -0.3068 -0.1631
  190POPX   C2B 2278   2.153   6.631   7.106  0.1343  0.0369  0.2875
  190POPX   C3B 2279   1.886   6.779   6.760  0.0635 -0.2465  0.2997
  190POPX   C4B 2280   1.410   6.715   6.867  0.0333  0.0258 -0.2660
  191POPX   NC3 2281   4.842  21.168   8.011  0.3559 -0.0843 -0.0180
  191POPX   PO4 2282   4.881  21.199   7.603  0.0560 -0.2807 -0.0329
  191POPX   GL1 2283   4.692  21.534   7.341  0.0272  0.0548  0.2743
  191POPX   GL2 2284   4.657  21.321   7.174  0.0868 -0.0379 -0.3177
  191POPX   C1A 2285   4.906  21.893   7.034 -0.0624 -0.2224 -0.2313
  191POPX   D2A 2286   5.149  21.824   6.606 -0.0307 -0.1115  0.2315
  191POPX   C3A 2287   5.132  22.174   6.321 -0.0333 -0.2602 -0.1935
  191POPX   C4A 2288   5.200  22.595   6.105 -0.0988  0.0852  0.0240
  191POPX   C1B 2289   4.731  21.426   6.853  0.0752  0.1050  0.0530
  191POPX   C2B 2290   4.659  21.716   6.603 -0.0491  0.0132  0.2683
  191POPX   C3B 2291   4.610  22.074   6.267 -0.3362  0.1081  0.1308
  191POPX   C4B 2292   4.696  22.510   6.084 -0.1599  0.0328  0.2033
  192POPX   NC3 2293   6.927   8.119   7.275 -0.1879  0.0482 -0.0758
  192POPX   PO4 2294   7.128   8.432   7.327 -0.1968 -0.0269  0.3668
  192POPX   GL1 2295   7.110   8.662   6.951 -0.1243 -0.1383  0.3725
  192POPX   GL2 2296   7.377   8.793   6.962  0.0876 -0.2310  0.1896
  192POPX   C1A 2297   7.446   8.463   6.675 -0.0298  0.1499 -0.2438
  192POPX   D2A 2298   7.766   8.762   6.337  0.1875 -0.0426 -0.2528
  192POPX   C3A 2299   7.713   9.004   5.880 -0.0515  0.2071  0.2245
  192POPX   C4A 2300   7.574   9.292   5.500  0.2830 -0.0973 -0.2279
  192POPX   C1B 2301   7.547   8.989   6.646  0.4459 -0.0966  0.0553
  192POPX   C2B 2302   7.544   9.183   6.311  0.0007  0.1406  0.0471
  192POPX   C3B 2303   7.681   9.483   5.951  0.2845  0.0261 -0.0543
  192POPX   C4B 2304   7.920   9.770   5.658 -0.0161 -0.2096 -0.1304
  193POPX   NC3 2305  10.280  14.907   7.827  0.3149 -0.1396 -0.0662
  193POPX   PO4 2306  10.108  15.164   7.599  0.2382 -0.0001  0.1462
  193POPX   GL1 2307  10.084  14.928   7.203  0.0229 -0.6321  0.0852
  193POPX   GL2 2308  10.339  14.948   7.210 -0.1280 -0.4067  0.1521
  193POPX   C1A 2309   9.936  14.865   6.826 -0.3206 -0.0276 -0.1157
  193POPX   D2A 2310  10.033  14.972   6.328  0.2575  0.1791  0.1635
  193POPX   C3A 2311  10.145  14.943   5.890 -0.0379  0.1563  0.3433
  193POPX   C4A 2312  10.382  15.224   5.502 -0.1408  0.0942  0.1167
  193POPX   C1B 2313  10.392  15.133   6.922  0.1300 -0.1733  0.2907
  193POPX   C2B 2314  10.509  15.276   6.532 -0.2418 -0.1351  0.2104
  193POPX   C3B 2315  10.636  15.436   6.066  0.1791  0.1601 -0.0193
  193POPX   C4B 2316  10.707  15.784   5.707  0.0158  0.3600  0.0992
  194POPX   NC3 2317  16.911  25.353   7.977  0.0453 -0.0187 -0.1554
  194POPX   PO4 2318  16.795  25.774   7.916 -0.1029 -0.0225  0.2997
  194POPX   GL1 2319  16.835  25.979   7.526 -0.1102 -0.1797 -0.0431
  194POPX   GL2 2320  16.522  25.958   7.534 -0.1905 -0.0554 -0.0356
  194POPX   C1A 2321  16.933  25.847   7.070 -0.0845  0.0635  0.1547
  194POPX   D2A 2322  16.626  25.500   6.887  0.1023 -0.0780  0.0447
  194POPX   C3A 2323  16.671  25.558   6.438 -0.1921  0.0401 -0.2535
  194POPX   C4A 2324  16.333  25.680   6.038 -0.0811 -0.0630 -0.0776
  194POPX   C1B 2325  16.486  25.896   7.172  0.1759  0.0139  0.2122
  194POPX   C2B 2326  16.595  26.101   6.796 -0.0386  0.1436  0.2189
  194POPX   C3B 2327  16.890  26.083   6.352  0.1538  0.1776  0.1576
  194POPX   C4B 2328  17.113  26.155   5.880 -0.4238  0.0224  0.0442
  195POPX   NC3 2329   7.363  14.704   7.591 -0.0594 -0.2105 -0.1608
  195POPX   PO4 2330   7.354  14.346   7.393 -0.1743  0.3201  0.1894
  195POPX   GL1 2331   7.241  14.374   6.977  0.1123 -0.0074  0.2653
  195POPX   GL2 2332   7.541  14.422   6.918 -0.1203  0.1064 -0.2694
  195POPX   C1A 2333   6.988  14.591   6.723  0.0224 -0.2160  0.1307
  195POPX   D2A 2334   6.964  14.779   6.317  0.1976  0.2447  0.2788
  195POPX   C3A 2335   6.960  14.800   5.829 -0.0135  0.0670 -0.0947
  195POPX   C4A 2336   7.158  14.802   5.377  0.3509  0.1241 -0.0503
  195POPX   C1B 2337   7.678  14.274   6.594  0.0005  0.1271  0.0250
  195POPX   C2B 2338   7.665  14.408   6.267  0.0422 -0.2292 -0.3048
  195POPX   C3B 2339   7.732  14.170   5.823  0.1334 -0.4463  0.1603
  195POPX   C4B 2340   7.675  14.117   5.384 -0.0508  0.0819 -0.2126
  196POPX   NC3 2341  18.328  23.312   7.498 -0.1554 -0.2024 -0.0279
  196POPX   PO4 2342  17.920  23.311   7.452 -0.1301 -0.1363 -0.0373
  196POPX   GL1 2343  17.876  23.515   7.051  0.1697 -0.2107  0.2511
  196POPX   GL2 2344  17.769  23.320   6.936 -0.1842  0.0326 -0.1306
  196POPX   C1A 2345  18.088  23.809   6.782  0.2790  0.1833 -0.1044
  196POPX   D2A 2346  18.274  23.985   6.379 -0.0144  0.0224  0.2234
  196POPX   C3A 2347  18.529  23.834   5.982 -0.0328  0.1291  0.0289
  196POPX   C4A 2348  18.349  24.210   5.694 -0.1463  0.3699  0.4156
  196POPX   C1B 2349  17.856  23.442   6.604 -0.0261  0.0646 -0.2375
  196POPX   C2B 2350  18.024  23.575   6.234  0.1881  0.1077  0.1070
  196POPX   C3B 2351  18.002  23.950   5.959  0.1534  0.0625  0.0534
  196POPX   C4B 2352  17.807  24.378   5.809  0.1985 -0.0443 -0.0246
  197POPX   NC3 2353  23.422  19.182   7.468  0.0503 -0.1995  0.3704
  197POPX   PO4 2354  23.385  18.817   7.267  0.0677  0.3691 -0.2410
  197POPX   GL1 2355  23.084  18.905   6.948 -0.1846 -0.1149 -0.2602
  197POPX   GL2 2356  23.078  18.750   6.842 -0.1147 -0.2203 -0.0807
  197POPX   C1A 2357  22.840  19.191   6.738 -0.1473  0.0421 -0.3006
  197POPX   D2A 2358  22.612  19.620   6.621  0.0172 -0.0480  0.2977
  197POPX   C3A 2359  22.275  19.925   6.412  0.1611  0.2583 -0.0688
  197POPX   C4A 2360  21.842  20.019   6.213 -0.1507  0.3654 -0.0941
  197POPX   C1B 2361  23.295  18.782   6.519 -0.0349  0.2856 -0.0280
  197POPX   C2B 2362  23.466  18.787   6.155  0.1591  0.3188  0.0825
  197POPX   C3B 2363  23.627  18.805   5.688  0.0688  0.1871  0.0607
  197POPX   C4B 2364  23.679  18.992   5.217  0.0974  0.1163  0.3298
  198POPX   NC3 2365   2.155  26.410   8.419 -0.3515 -0.0580  0.0703
  198POPX   PO4 2366   1.787  26.356   8.223  0.1602 -0.1692  0.1574
  198POPX   GL1 2367   1.821  26.486   7.795 -0.2725 -0.0740  0.0636
  198POPX   GL2 2368   1.744  26.695   7.738 -0.0430  0.0757 -0.2867
  198POPX   C1A 2369   2.242  26.428   7.560 -0.0565 -0.3348 -0.0104
  198POPX   D2A 2370   2.766  26.476   7.480  0.2455 -0.2730  0.2387
  198POPX   C3A 2371   2.960  26.510   7.048  0.1377  0.1927  0.0194
  198POPX   C4A 2372   3.025  26.434   6.565  0.0170  0.0041 -0.0693
  198POPX   C1B 2373   1.868  26.671   7.387  0.1771  0.2990 -0.1134
  198POPX   C2B 2374   1.936  26.532   6.981  0.1444  0.3706 -0.0091
  198POPX   C3B 2375   2.000  26.447   6.464  0.0788  0.0907 -0.1502
  198POPX   C4B 2376   2.230  26.204   6.052 -0.0048 -0.1561 -0.2421
  199POPX   NC3 2377  12.291  25.638   7.616  0.0683 -0.1717 -0.3609
  199POPX   PO4 2378  12.056  25.710   7.331 -0.0265  0.0294 -0.1151
  199POPX   GL1 2379  11.717  25.605   7.145  0.0005  0.1024 -0.6364
  199POPX   GL2 2380  11.957  25.761   6.898 -0.0522 -0.0846 -0.2411
  199POPX   C1A 2381  11.580  25.454   6.821  0.4652 -0.0410  0.0793
  199POPX   D2A 2382  11.470  25.265   6.323 -0.4270 -0.0733  0.0428
  199POPX   C3A 2383  11.394  25.360   5.863 -0.0549 -0.3091  0.1101
  199POPX   C4A 2384  11.222  25.673   5.496  0.0910  0.0949 -0.0911
  199POPX   C1B 2385  11.876  25.716   6.528  0.4176 -0.0096  0.0793
  199POPX   C2B 2386  11.844  25.582   6.141  0.1068  0.0300  0.0191
  199POPX   C3B 2387  11.992  25.343   5.712 -0.1432 -0.1193 -0.1567
  199POPX   C4B 2388  11.994  24.964   5.362  0.0313 -0.0213 -0.0730
  200POPX   NC3 2389   8.952   4.825   7.712  0.1981 -0.1235  0.1852
  200POPX   PO4 2390   9.043   4.501   7.517 -0.0214  0.0630 -0.1196
  200POPX   GL1 2391   9.206   4.339   7.193  0.3576 -0.0375 -0.0303
  200POPX   GL2 2392   9.171   4.650   7.077 -0.1734 -0.1672 -0.0742
  200POPX   C1A 2393   9.286   4.034   6.955 -0.0921 -0.1386 -0.5068
  200POPX   D2A 2394   9.524   3.869   6.623  0.0907  0.1695  0.0548
  200POPX   C3A 2395   9.414   3.755   6.157 -0.1712 -0.0086  0.1478
  200POPX   C4A 2396   9.487   3.544   5.689  0.2866 -0.1390  0.1629
  200POPX   C1B 2397   8.991   4.713   6.748  0.2026  0.3652 -0.1404
  200POPX   C2B 2398   8.762   4.772   6.402  0.0824  0.1410  0.2379
  200POPX   C3B 2399   8.665   4.865   5.946 -0.1462 -0.0974  0.1986
  200POPX   C4B 2400   8.633   4.658   5.491 -0.3061  0.0364 -0.1319
  201POPX   NC3 2401  12.680  24.306   7.611 -0.3584 -0.1559  0.3085
  201POPX   PO4 2402  12.803  24.634   7.820  0.0583  0.0642 -0.0660
  201POPX   GL1 2403  12.804  25.003   7.476 -0.0749  0.0723  0.0139
  201POPX   GL2 2404  13.101  25.010   7.595  0.2124 -0.1528  0.0355
  201POPX   C1A 2405  12.835  24.983   7.042  0.1170 -0.0312 -0.0024
  201POPX   D2A 2406  12.844  25.116   6.568  0.2509  0.1350 -0.0390
  201POPX   C3A 2407  13.257  25.079   6.439  0.0059  0.0407  0.0005
  201POPX   C4A 2408  13.497  25.421   6.196  0.2026 -0.1594 -0.1249
  201POPX   C1B 2409  13.249  24.936   7.282 -0.2204 -0.3310 -0.1694
  201POPX   C2B 2410  13.304  25.043   6.899  0.1108 -0.0945 -0.1086
  201POPX   C3B 2411  13.600  25.338   6.663 -0.0358 -0.0271 -0.3652
  201POPX   C4B 2412  13.654  25.812   6.456 -0.3365  0.2914 -0.1217
  202POPX   NC3 2413  19.821   5.956   7.213  0.2142 -0.3496  0.1758
  202POPX   PO4 2414  19.836   6.195   6.891  0.4165 -0.0768 -0.0715
  202POPX   GL1 2415  19.953   6.215   6.540  0.3432 -0.3804  0.0145
  202POPX   GL2 2416  19.985   6.430   6.491 -0.0607  0.3623 -0.3746
  202POPX   C1A 2417  20.301   6.083   6.233  0.0145  0.3247  0.1573
  202POPX   D2A 2418  20.564   5.699   6.166 -0.2640 -0.0238  0.2087
  202POPX   C3A 2419  20.851   5.731   5.749 -0.0010 -0.2167 -0.2017
  202POPX   C4A 2420  20.880   6.170   5.566 -0.1896 -0.1206  0.3559
  202POPX   C1B 2421  19.969   6.393   6.077  0.3561 -0.1124  0.0971
  202POPX   C2B 2422  20.023   6.331   5.697  0.1115  0.2964  0.2103
  202POPX   C3B 2423  20.042   6.301   5.206  0.1096 -0.1866  0.0924
  202POPX   C4B 2424  20.074   6.276   4.658  0.0492 -0.2308 -0.0461
  203POPX   NC3 2425  25.468  15.255   7.877 -0.0652  0.1904  0.0010
  203POPX   PO4 2426  25.780  15.295   7.603  0.1564  0.0308  0.0142
  203POPX   GL1 2427  25.680  15.464   7.257 -0.0851  0.2042 -0.0004
  203POPX   GL2 2428  25.906  15.569   7.160 -0.1058  0.1870 -0.1309
  203POPX   C1A 2429  25.464  15.314   6.818  0.3793 -0.0476  0.1398
  203POPX   D2A 2430  25.456  14.858   6.520 -0.1953 -0.0811 -0.2890
  203POPX   C3A 2431  25.586  14.754   6.049  0.0759  0.1230 -0.0763
  203POPX   C4A 2432  25.731  14.737   5.544 -0.1389 -0.0650  0.1294
  203POPX   C1B 2433  25.903  15.737   6.824  0.0308 -0.1891  0.0206
  203POPX   C2B 2434  25.871  15.750   6.398  0.0022  0.0063 -0.1081
  203POPX   C3B 2435  25.852  16.093   6.035 -0.3010 -0.0183  0.2595
  203POPX   C4B 2436  26.052  16.160   5.617 -0.0065  0.1482  0.0421
  204POPX   NC3 2437  26.254  23.911   7.631  0.2251 -0.1991 -0.1548
  204POPX   PO4 2438  26.561  24.112   7.431 -0.2008 -0.1405 -0.0769
  204POPX   GL1 2439  26.520  23.888   7.078  0.4005  0.2915  0.1314
  204POPX   GL2 2440  26.709  23.642   7.085 -0.2701 -0.3211  0.0134
  204POPX   C1A 2441  26.266  23.910   6.672 -0.1053 -0.0174 -0.1044
  204POPX   D2A 2442  26.081  24.176   6.294 -0.3002  0.1267 -0.0177
  204POPX   C3A 2443  25.756  23.986   5.961 -0.1167 -0.1256 -0.1709
  204POPX   C4A 2444  25.379  24.058   5.619  0.1257 -0.0708 -0.1245
  204POPX   C1B 2445  26.797  23.475   6.792 -0.2287 -0.0208 -0.5045
  204POPX   C2B 2446  26.902  23.503   6.418  0.0659  0.2274 -0.0638
  204POPX   C3B 2447  26.978  23.452   5.890  0.0552 -0.1510  0.1152
  204POPX   C4B 2448  27.040  23.251   5.425 -0.0132 -0.2650 -0.0590
  205POPX   NC3 2449   7.286  15.140   8.125 -0.1180  0.0005  0.0848
  205POPX   PO4 2450   7.497  15.098   7.790 -0.1614 -0.0053  0.0500
  205POPX   GL1 2451   7.554  15.002   7.327 -0.1120 -0.4132 -0.2456
  205POPX   GL2 2452   7.431  15.276   7.295  0.2362 -0.1330  0.3565
  205POPX   C1A 2453   7.307  14.903   7.026  0.0606  0.0256  0.0072
  205POPX   D2A 2454   7.474  14.837   6.542  0.2391 -0.3606 -0.0285
  205POPX   C3A 2455   7.419  14.838   6.035  0.0940 -0.0162 -0.0887
  205POPX   C4A 2456   7.620  14.718   5.578 -0.0021  0.1569  0.0256
  205POPX   C1B 2457   7.464  15.392   6.960  0.3577 -0.2339  0.2039
  205POPX   C2B 2458   7.485  15.432   6.543  0.1085 -0.1060  0.0206
  205POPX   C3B 2459   7.554  15.462   6.077  0.0204  0.1320 -0.3079
  205POPX   C4B 2460   7.496  15.214   5.669 -0.0485 -0.1467  0.1522
  206POPX   NC3 2461  15.961  26.121   8.221 -0.2320  0.1584 -0.1921
  206POPX   PO4 2462  15.787  26.477   8.061  0.1263  0.1972  0.0248
  206POPX   GL1 2463  15.581  26.497   7.715 -0.2549 -0.2827  0.3544
  206POPX   GL2 2464  15.563  26.777   7.697  0.3492 -0.1744  0.2222
  206POPX   C1A 2465  15.771  26.332   7.393 -0.2733  0.1299 -0.2350
  206POPX   D2A 2466  16.148  26.232   7.077  0.0560  0.2145 -0.0189
  206POPX   C3A 2467  16.175  26.393   6.628 -0.2996 -0.0736  0.0812
  206POPX   C4A 2468  16.423  26.179   6.234 -0.1329 -0.2122  0.1658
  206POPX   C1B 2469  15.438  26.894   7.379  0.0578 -0.2649  0.1259
  206POPX   C2B 2470  15.367  26.910   6.969 -0.0662 -0.1622 -0.0931
  206POPX   C3B 2471  15.331  27.005   6.438 -0.1347 -0.2461  0.0369
  206POPX   C4B 2472  15.449  27.164   6.063  0.2881 -0.1826  0.0087
  207POPX   NC3 2473  12.619   7.598   8.204 -0.3215  0.3860  0.0186
  207POPX   PO4 2474  12.580   7.291   7.980 -0.0431  0.2149  0.1413
  207POPX   GL1 2475  12.593   7.345   7.596  0.2043  0.4130 -0.1242
  207POPX   GL2 2476  12.921   7.285   7.575 -0.1828 -0.0669 -0.1995
  207POPX   C1A 2477  12.378   7.493   7.249 -0.2158  0.1861  0.3677
  207POPX   D2A 2478  12.343   7.581   6.750 -0.0893 -0.0123 -0.1681
  207POPX   C3A 2479  12.697   7.591   6.465 -0.0160  0.1691 -0.0299
  207POPX   C4A 2480  12.666   7.555   5.951 -0.1351  0.3904 -0.1385
  207POPX   C1B 2481  13.046   7.409   7.227 -0.0091  0.5754  0.2428
  207POPX   C2B 2482  13.223   7.423   6.855  0.2723  0.3296 -0.0346
  207POPX   C3B 2483  13.462   7.480   6.417 -0.0344 -0.3615 -0.1754
  207POPX   C4B 2484  13.516   7.854   5.978  0.2425 -0.1171 -0.2307
  208POPX   NC3 2485   4.654  10.594   7.317 -0.3599  0.0794 -0.0931
  208POPX   PO4 2486   4.525  10.416   7.023  0.1603 -0.1371  0.0111
  208POPX   GL1 2487   4.369  10.552   6.658 -0.1814 -0.0208 -0.0795
  208POPX   GL2 2488   4.224  10.809   6.777  0.4509  0.3136 -0.0100
  208POPX   C1A 2489   4.472  10.611   6.289  0.2518  0.0971 -0.0482
  208POPX   D2A 2490   4.467  10.898   5.942 -0.0724  0.3964 -0.2015
  208POPX   C3A 2491   4.357  10.561   5.629 -0.0825 -0.0599 -0.1839
  208POPX   C4A 2492   4.112  10.550   5.193 -0.1112 -0.0365  0.0267
  208POPX   C1B 2493   4.273  11.045   6.482 -0.1598 -0.0561 -0.4095
  208POPX   C2B 2494   4.134  11.237   6.133  0.2877 -0.1237 -0.2036
  208POPX   C3B 2495   3.844  11.351   5.694  0.1318  0.1526 -0.0200
  208POPX   C4B 2496   3.455  11.401   5.368  0.1715 -0.0538 -0.0297
  209POPX   NC3 2497   7.729  22.819   8.329  0.3362  0.0970 -0.0709
  209POPX   PO4 2498   7.380  22.776   8.091  0.1713  0.0707  0.0041
  209POPX   GL1 2499   7.257  23.132   7.895 -0.0010  0.3124 -0.1503
  209POPX   GL2 2500   6.973  23.164   7.964 -0.0971 -0.2192 -0.0812
  209POPX   C1A 2501   7.344  23.336   7.482 -0.2811 -0.1627  0.2865
  209POPX   D2A 2502   7.401  23.511   7.020  0.3011 -0.2443 -0.3154
  209POPX   C3A 2503   7.010  23.619   6.815 -0.0228  0.1018 -0.0870
  209POPX   C4A 2504   7.143  23.824   6.401  0.3801  0.2148 -0.0270
  209POPX   C1B 2505   6.653  23.115   7.769  0.0466 -0.3025  0.1035
  209POPX   C2B 2506   6.440  23.131   7.466  0.1521 -0.0188 -0.1333
  209POPX   C3B 2507   6.246  23.090   7.019 -0.0156 -0.1743  0.2467
  209POPX   C4B 2508   6.070  23.220   6.559  0.0838  0.0314  0.0705
  210POPX   NC3 2509  25.622  20.298   7.526  0.2637  0.3121  0.0483
  210POPX   PO4 2510  25.367  20.005   7.483  0.1886 -0.2205 -0.3331
  210POPX   GL1 2511  25.229  20.116   7.039 -0.1649  0.0300  0.0891
  210POPX   GL2 2512  25.518  20.048   7.038  0.0358 -0.1977  0.3096
  210POPX   C1A 2513  25.315  20.283   6.613 -0.1569  0.2219  0.0179
  210POPX   D2A 2514  25.052  20.159   6.281 -0.3430 -0.0423  0.1566
  210POPX   C3A 2515  25.143  19.772   6.057 -0.2786  0.3779 -0.0475
  210POPX   C4A 2516  24.950  19.612   5.571 -0.1524 -0.0679 -0.3520
  210POPX   C1B 2517  25.683  19.938   6.707  0.0898 -0.0493 -0.3748
  210POPX   C2B 2518  25.669  20.086   6.297 -0.1013  0.2564  0.0314
  210POPX   C3B 2519  25.612  19.845   5.857 -0.2382 -0.0492  0.4039
  210POPX   C4B 2520  25.700  19.681   5.361 -0.1641  0.2356  0.0695
  211POPX   NC3 2521   2.157   9.426   8.202 -0.0484 -0.1228 -0.1429
  211POPX   PO4 2522   1.975   9.101   8.039 -0.2335 -0.0007 -0.1903
  211POPX   GL1 2523   1.946   9.017   7.632 -0.0927  0.0704  0.0234
  211POPX   GL2 2524   1.988   8.796   7.654 -0.1089  0.1159  0.0198
  211POPX   C1A 2525   1.716   9.122   7.379 -0.2004 -0.2990 -0.0059
  211POPX   D2A 2526   1.705   9.507   7.088  0.0458 -0.0120 -0.1628
  211POPX   C3A 2527   1.736   9.512   6.695 -0.2200  0.0026  0.0055
  211POPX   C4A 2528   1.838   9.504   6.161  0.0372 -0.1566 -0.1912
  211POPX   C1B 2529   1.788   8.622   7.353  0.1366  0.0861 -0.1697
  211POPX   C2B 2530   1.821   8.505   6.957 -0.1573 -0.2166 -0.0547
  211POPX   C3B 2531   1.812   8.418   6.503  0.0208 -0.2261 -0.1181
  211POPX   C4B 2532   1.967   8.191   6.108 -0.0955  0.3733 -0.0941
  212POPX   NC3 2533   7.027   9.340   7.810  0.0658  0.0976  0.1108
  212POPX   PO4 2534   7.277   9.592   7.610 -0.2501 -0.1078  0.3345
  212POPX   GL1 2535   7.374   9.468   7.223  0.3114 -0.2289 -0.1212
  212POPX   GL2 2536   7.172   9.710   7.081 -0.0792  0.5922  0.3240
  212POPX   C1A 2537   7.155   9.136   6.926  0.3150 -0.0265 -0.0728
  212POPX   D2A 2538   6.762   9.183   6.667  0.4041  0.1738 -0.2538
  212POPX   C3A 2539   6.945   9.160   6.200  0.0589  0.1401 -0.2010
  212POPX   C4A 2540   7.233   9.151   5.825 -0.0066 -0.0140  0.0838
  212POPX   C1B 2541   7.037   9.570   6.757 -0.1864  0.0451 -0.3895
  212POPX   C2B 2542   7.174   9.555   6.355  0.1711  0.0095 -0.1141
  212POPX   C3B 2543   7.059   9.602   5.931  0.2037  0.2020  0.0644
  212POPX   C4B 2544   6.803   9.839   5.552 -0.0860 -0.0793 -0.0010
  213POPX   NC3 2545   4.303  27.034   7.631 -0.2302 -0.0580 -0.1116
  213POPX   PO4 2546   4.423  26.683   7.845 -0.3621  0.3683  0.0247
  213POPX   GL1 2547   4.333  26.382   7.475 -0.0365 -0.2473  0.0982
  213POPX   GL2 2548   4.388  26.637   7.331  0.2266  0.0654  0.3261
  213POPX   C1A 2549   4.250  25.988   7.234  0.0527 -0.1221 -0.0493
  213POPX   D2A 2550   4.437  25.918   6.773  0.1800  0.2292 -0.1010
  213POPX   C3A 2551   4.387  25.868   6.370  0.0830  0.1955  0.1311
  213POPX   C4A 2552   4.158  25.764   5.965 -0.2355  0.0320 -0.0891
  213POPX   C1B 2553   4.359  26.518   7.000 -0.0116 -0.2062  0.2215
  213POPX   C2B 2554   4.430  26.399   6.592  0.2152  0.0560  0.2584
  213POPX   C3B 2555   4.552  26.261   6.167  0.1289  0.0855 -0.2564
  213POPX   C4B 2556   4.706  26.031   5.824 -0.0698 -0.3610  0.1795
  214POPX   NC3 2557  19.591   4.034   7.175 -0.0897  0.0228 -0.0427
  214POPX   PO4 2558  19.194   4.065   7.113 -0.1991  0.0731  0.0001
  214POPX   GL1 2559  19.182   3.741   6.789 -0.1021 -0.1304 -0.0703
  214POPX   GL2 2560  18.968   4.026   6.693  0.0683  0.1831 -0.2138
  214POPX   C1A 2561  19.306   3.663   6.385 -0.0267 -0.1499  0.0180
  214POPX   D2A 2562  19.234   3.589   5.901 -0.0374 -0.0622 -0.2631
  214POPX   C3A 2563  19.464   3.619   5.531 -0.0909 -0.0501 -0.0191
  214POPX   C4A 2564  19.692   3.292   5.163  0.1291 -0.0296  0.2468
  214POPX   C1B 2565  18.863   3.990   6.333 -0.0251  0.0424 -0.1052
  214POPX   C2B 2566  18.798   3.947   5.916  0.1432  0.0193 -0.0676
  214POPX   C3B 2567  18.943   3.784   5.501 -0.1596  0.1995  0.0372
  214POPX   C4B 2568  18.960   3.400   5.264  0.3187 -0.0937  0.0832
  215POPX   NC3 2569   6.072  21.357   8.071  0.0539  0.0931 -0.0931
  215POPX   PO4 2570   5.833  21.558   7.817 -0.2628  0.5111  0.0279
  215POPX   GL1 2571   6.016  21.442   7.483 -0.0846  0.3425  0.1499
  215POPX   GL2 2572   5.700  21.595   7.404 -0.0270 -0.4482  0.3171
  215POPX   C1A 2573   5.935  21.057   7.214  0.0869 -0.3077  0.3253
  215POPX   D2A 2574   5.962  21.009   6.642  0.2287  0.2517  0.2137
  215POPX   C3A 2575   5.968  21.167   6.224  0.5843 -0.0412  0.1460
  215POPX   C4A 2576   6.083  21.580   6.079 -0.4530 -0.1043  0.0312
  215POPX   C1B 2577   5.678  21.508   7.010 -0.0941 -0.1554 -0.2495
  215POPX   C2B 2578   5.560  21.310   6.633 -0.0110 -0.0286  0.1395
  215POPX   C3B 2579   5.416  21.203   6.236  0.0201 -0.0532  0.1994
  215POPX   C4B 2580   5.582  21.105   5.804  0.2147  0.1104  0.2836
  216POPX   NC3 2581   4.043  15.373   7.557  0.0605 -0.3389  0.0177
  216POPX   PO4 2582   3.913  15.672   7.303  0.1303 -0.1066 -0.1243
  216POPX   GL1 2583   3.681  15.509   6.879  0.1863 -0.4156 -0.1621
  216POPX   GL2 2584   3.685  15.792   6.809 -0.0973 -0.1084 -0.2884
  216POPX   C1A 2585   3.646  15.223   6.544 -0.2289  0.1468 -0.0862
  216POPX   D2A 2586   3.658  14.732   6.283 -0.0948 -0.0582 -0.0150
  216POPX   C3A 2587   3.793  14.632   5.849 -0.2015  0.1018 -0.1729
  216POPX   C4A 2588   3.909  15.020   5.515 -0.0930 -0.1121  0.1417
  216POPX   C1B 2589   3.416  15.824   6.534 -0.0008  0.4352 -0.2376
  216POPX   C2B 2590   3.295  15.878   6.140  0.1147 -0.0153  0.0134
  216POPX   C3B 2591   3.145  15.601   5.757 -0.0721 -0.0939 -0.1027
  216POPX   C4B 2592   3.357  15.294   5.463  0.0746  0.1800  0.2473
  217POPX   NC3 2593  10.062  19.869   7.503 -0.3119 -0.0965  0.3121
  217POPX   PO4 2594   9.865  20.216   7.503  0.3767 -0.0949  0.3148
  217POPX   GL1 2595   9.726  20.067   7.223  0.0893  0.1741 -0.3178
  217POPX   GL2 2596   9.493  19.907   7.335 -0.1502 -0.1192 -0.2606
  217POPX   C1A 2597   9.663  20.009   6.810  0.1185  0.1790  0.0425
  217POPX   D2A 2598   9.535  20.207   6.384 -0.1619  0.0712 -0.1830
  217POPX   C3A 2599   9.334  19.856   6.137 -0.0310 -0.2983 -0.1607
  217POPX   C4A 2600   9.414  19.623   5.728 -0.0481  0.0120  0.0591
  217POPX   C1B 2601   9.107  19.919   7.235  0.0877  0.0148  0.1038
  217POPX   C2B 2602   8.942  19.756   6.843 -0.1904 -0.0047  0.1106
  217POPX   C3B 2603   8.904  19.802   6.370 -0.2318 -0.3403  0.0849
  217POPX   C4B 2604   8.909  19.765   5.860  0.0008  0.3832 -0.4094
  218POPX   NC3 2605  21.456   6.706   8.071  0.2983  0.0679 -0.0905
  218POPX   PO4 2606  21.474   6.872   7.694 -0.0856  0.3593  0.0986
  218POPX   GL1 2607  21.367   7.052   7.330  0.1472 -0.3366 -0.0242
  218POPX   GL2 2608  21.520   7.280   7.280  0.0029  0.0074 -0.1908
  218POPX   C1A 2609  21.347   6.895   6.910 -0.2183 -0.2310 -0.1143
  218POPX   D2A 2610  21.741   6.655   6.668 -0.0909  0.0150 -0.0806
  218POPX   C3A 2611  21.921   6.528   6.274 -0.2012 -0.3120 -0.0658
  218POPX   C4A 2612  21.983   6.273   5.856  0.0415  0.0345  0.2072
  218POPX   C1B 2613  21.788   7.237   7.010  0.1205  0.4112 -0.1688
  218POPX   C2B 2614  21.989   7.112   6.679 -0.0344  0.1408  0.0947
  218POPX   C3B 2615  22.176   6.972   6.241  0.1244  0.1032 -0.0062
  218POPX   C4B 2616  22.349   6.873   5.731 -0.0301 -0.0080  0.3873
  219POPX   NC3 2617  10.705  14.833   7.587 -0.0083 -0.1264 -0.0100
  219POPX   PO4 2618  10.952  14.578   7.701  0.0575 -0.0323 -0.2125
  219POPX   GL1 2619  11.108  14.542   7.318 -0.0799 -0.0449 -0.2768
  219POPX   GL2 2620  11.394  14.459   7.417  0.3052 -0.1250 -0.1865
  219POPX   C1A 2621  11.187  14.722   6.922  0.1676 -0.0516 -0.1892
  219POPX   D2A 2622  11.279  14.868   6.485  0.0564 -0.0617 -0.0486
  219POPX   C3A 2623  11.368  14.793   6.022  0.0609  0.0517  0.1130
  219POPX   C4A 2624  11.309  14.829   5.504  0.0134  0.1380 -0.1437
  219POPX   C1B 2625  11.643  14.453   7.172  0.0435  0.1028  0.0451
  219POPX   C2B 2626  11.937  14.230   6.908  0.2234 -0.0418 -0.0449
  219POPX   C3B 2627  12.262  14.172   6.607  0.2666  0.1533  0.0974
  219POPX   C4B 2628  12.546  13.985   6.254  0.2894 -0.1561 -0.0540
  220POPX   NC3 2629   3.446  14.308   7.343 -0.0994 -0.1104  0.2972
  220POPX   PO4 2630   3.388  14.711   7.273 -0.0964 -0.1750 -0.3436
  220POPX   GL1 2631   3.051  14.833   7.095  0.4259 -0.4844 -0.3080
  220POPX   GL2 2632   3.271  15.001   6.898 -0.0308 -0.2236  0.2177
  220POPX   C1A 2633   2.649  14.744   7.000  0.1159  0.1077 -0.1080
  220POPX   D2A 2634   2.442  14.776   6.585  0.2463 -0.2526 -0.0346
  220POPX   C3A 2635   2.245  14.875   6.160  0.2488  0.0224 -0.0709
  220POPX   C4A 2636   2.104  14.783   5.755 -0.2774 -0.3656 -0.2567
  220POPX   C1B 2637   3.232  15.018   6.497  0.0969  0.0656  0.0823
  220POPX   C2B 2638   3.224  14.863   6.113 -0.1598 -0.1015 -0.1559
  220POPX   C3B 2639   3.227  14.824   5.659  0.0336 -0.3580 -0.2356
  220POPX   C4B 2640   2.953  14.855   5.248  0.0727 -0.3092 -0.2717
  221POPX   NC3 2641  25.923   1.948   7.818 -0.0640 -0.1067  0.3965
  221POPX   PO4 2642  26.185   1.633   7.712  0.1450  0.1073  0.3715
  221POPX   GL1 2643  26.314   1.393   7.380  0.1612 -0.1263  0.1098
  221POPX   GL2 2644  25.999   1.331   7.317 -0.1927  0.0940  0.0727
  221POPX   C1A 2645  26.558   1.702   7.078  0.2149 -0.1579 -0.1737
  221POPX   D2A 2646  26.608   1.871   6.619  0.0860  0.1905 -0.1138
  221POPX   C3A 2647  26.664   1.904   6.161  0.2416  0.0276  0.2390
  221POPX   C4A 2648  26.673   2.100   5.733 -0.4852 -0.2923  0.1315
  221POPX   C1B 2649  26.024   1.543   7.008 -0.2283 -0.2037  0.1789
  221POPX   C2B 2650  26.068   1.667   6.646  0.1764 -0.2650  0.0041
  221POPX   C3B 2651  26.240   1.618   6.204  0.0541 -0.2472  0.1231
  221POPX   C4B 2652  26.294   1.788   5.749  0.2343  0.0984 -0.2167
  222POPX   NC3 2653   1.531   1.864   7.742  0.0572  0.1074 -0.2996
  222POPX   PO4 2654   1.217   1.713   7.544 -0.1062  0.2651 -0.1167
  222POPX   GL1 2655   1.346   1.974   7.156  0.1199 -0.0564 -0.2054
  222POPX   GL2 2656   1.143   1.753   6.996 -0.0210 -0.1262  0.0697
  222POPX   C1A 2657   1.649   1.965   6.830 -0.1765 -0.2972  0.0895
  222POPX   D2A 2658   1.756   1.976   6.358 -0.0767 -0.4050  0.3144
  222POPX   C3A 2659   1.526   2.270   6.062  0.0320 -0.0299 -0.2694
  222POPX   C4A 2660   1.361   2.720   6.074  0.0819 -0.3525 -0.0671
  222POPX   C1B 2661   1.283   1.716   6.583  0.3333 -0.1950 -0.0583
  222POPX   C2B 2662   1.293   1.842   6.190  0.2069  0.0131 -0.2313
  222POPX   C3B 2663   1.381   1.911   5.747  0.0866  0.4084 -0.1279
  222POPX   C4B 2664   1.699   2.025   5.415 -0.0019  0.1603 -0.0313
  223POPX   NC3 2665   5.848  20.735   8.297  0.2460  0.0950  0.1591
  223POPX   PO4 2666   5.844  20.608   7.901  0.2841 -0.0901  0.3433
  223POPX   GL1 2667   5.583  20.729   7.490  0.1267  0.1997 -0.0489
  223POPX   GL2 2668   5.622  21.025   7.551 -0.0990  0.1231  0.0731
  223POPX   C1A 2669   5.341  20.727   7.091 -0.0144 -0.4560  0.2411
  223POPX   D2A 2670   5.450  20.821   6.577 -0.0897  0.0148 -0.0721
  223POPX   C3A 2671   5.620  20.776   6.225 -0.2443 -0.1403 -0.1620
  223POPX   C4A 2672   5.540  20.515   5.849  0.0618  0.1449 -0.2135
  223POPX   C1B 2673   5.414  21.188   7.298 -0.0603 -0.1873  0.3360
  223POPX   C2B 2674   5.161  21.235   7.005  0.2987 -0.0916  0.1543
  223POPX   C3B 2675   4.994  21.218   6.564 -0.2668  0.0550  0.0263
  223POPX   C4B 2676   5.016  21.607   6.216 -0.0343 -0.0853 -0.0739
  224POPX   NC3 2677  18.878   0.430   8.098  0.2649  0.1441 -0.1280
  224POPX   PO4 2678  19.057   0.249   7.766 -0.0515 -0.2664  0.2045
  224POPX   GL1 2679  19.073   0.213   7.318 -0.0436 -0.2157  0.0643
  224POPX   GL2 2680  19.024  -0.082   7.339  0.3519  0.1600 -0.3224
  224POPX   C1A 2681  18.918   0.284   6.875 -0.2971  0.0219 -0.0340
  224POPX   D2A 2682  19.010   0.156   6.385  0.0313 -0.1882  0.2846
  224POPX   C3A 2683  19.337   0.475   6.301 -0.2355  0.1681  0.1866
  224POPX   C4A 2684  19.584   0.915   6.373  0.2406 -0.0598 -0.2878
  224POPX   C1B 2685  18.798  -0.167   7.074 -0.2565  0.3043 -0.2364
  224POPX   C2B 2686  18.824  -0.200   6.642 -0.1083 -0.0380  0.0552
  224POPX   C3B 2687  18.935  -0.347   6.163  0.0917  0.1835  0.1648
  224POPX   C4B 2688  19.051  -0.363   5.746 -0.0632 -0.1522  0.1217
  225POPX   NC3 2689  16.874   4.400   7.398  0.1117 -0.1922 -0.1625
  225POPX   PO4 2690  16.785   4.026   7.386  0.2320  0.1451 -0.2356
  225POPX   GL1 2691  16.725   3.931   6.989 -0.4553 -0.3174 -0.2538
  225POPX   GL2 2692  16.801   4.179   6.984  0.1476  0.2077 -0.0061
  225POPX   C1A 2693  16.508   3.677   6.762  0.0743 -0.1822  0.1049
  225POPX   D2A 2694  16.465   3.533   6.314  0.3134 -0.1178 -0.5161
  225POPX   C3A 2695  16.151   3.300   6.056 -0.0067  0.2614 -0.0694
  225POPX   C4A 2696  15.884   3.011   5.855  0.1018  0.0452  0.2288
  225POPX   C1B 2697  16.724   4.362   6.643  0.1117 -0.1895  0.1860
  225POPX   C2B 2698  16.595   4.486   6.287  0.0059 -0.0719  0.0666
  225POPX   C3B 2699  16.754   4.861   6.019  0.0213  0.1422 -0.0492
  225POPX   C4B 2700  16.965   5.313   6.021 -0.0627 -0.1988  0.0709
  226POPX   NC3 2701  13.513  10.058   7.870  0.2168  0.1282 -0.2156
  226POPX   PO4 2702  13.202  10.322   7.864 -0.1941 -0.2436 -0.2241
  226POPX   GL1 2703  13.149  10.331   7.391  0.2504 -0.3836 -0.6447
  226POPX   GL2 2704  13.321  10.161   7.458  0.0478  0.1985 -0.2123
  226POPX   C1A 2705  13.340  10.248   6.989 -0.2320 -0.0577  0.0895
  226POPX   D2A 2706  13.731  10.267   6.683 -0.0310  0.1761 -0.1090
  226POPX   C3A 2707  13.938  10.075   6.273  0.2719 -0.0326 -0.0878
  226POPX   C4A 2708  14.130  10.149   5.860 -0.0730  0.2212  0.0600
  226POPX   C1B 2709  13.283   9.855   7.250  0.0528  0.1442  0.0382
  226POPX   C2B 2710  13.294   9.710   6.930 -0.0155 -0.0361  0.0166
  226POPX   C3B 2711  13.252   9.503   6.534 -0.2463 -0.1317  0.2073
  226POPX   C4B 2712  13.250   9.131   6.223  0.3997  0.1685  0.0723
  227POPX   NC3 2713  17.826  24.900   7.448 -0.1780  0.1242 -0.0752
  227POPX   PO4 2714  18.011  24.637   7.688 -0.1396 -0.0552 -0.3350
  227POPX   GL1 2715  18.361  24.888   7.384 -0.1194  0.1256  0.2038
  227POPX   GL2 2716  18.178  24.716   7.162 -0.1869  0.1410 -0.0307
  227POPX   C1A 2717  18.200  25.221   7.185 -0.0324  0.0033 -0.2770
  227POPX   D2A 2718  17.979  25.282   6.784 -0.1465  0.2846 -0.3288
  227POPX   C3A 2719  17.567  25.218   6.760  0.0289  0.0285 -0.2320
  227POPX   C4A 2720  17.370  24.927   7.113  0.0192 -0.2836 -0.2076
  227POPX   C1B 2721  18.252  24.892   6.845  0.3039  0.0589  0.1858
  227POPX   C2B 2722  18.220  25.056   6.449  0.0131  0.2830  0.0175
  227POPX   C3B 2723  18.219  25.263   6.017 -0.1822 -0.0790  0.2749
  227POPX   C4B 2724  18.271  25.327   5.590  0.1191  0.1244 -0.1050
  228POPX   NC3 2725   5.235  24.547   8.122 -0.1016 -0.2069  0.1078
  228POPX   PO4 2726   4.889  24.657   7.960  0.1503  0.2395 -0.0503
  228POPX   GL1 2727   4.471  24.771   7.689  0.1155 -0.0367  0.0517
  228POPX   GL2 2728   4.670  24.781   7.550  0.0683  0.1189 -0.2688
  228POPX   C1A 2729   4.165  24.858   7.461  0.2089  0.1226 -0.0714
  228POPX   D2A 2730   4.056  25.072   7.015 -0.1390 -0.3569  0.3443
  228POPX   C3A 2731   4.059  25.098   6.525  0.0597 -0.2346 -0.0959
  228POPX   C4A 2732   3.947  25.155   6.046  0.0826  0.0644  0.0107
  228POPX   C1B 2733   4.543  25.021   7.303 -0.2443  0.2334  0.2623
  228POPX   C2B 2734   4.530  25.043   6.886 -0.2053 -0.1070  0.2594
  228POPX   C3B 2735   4.567  24.882   6.420  0.1335  0.2297 -0.0953
  228POPX   C4B 2736   4.448  24.721   5.981  0.2545 -0.0655  0.2398
  229POPX   NC3 2737   1.861   8.680   8.428 -0.3396 -0.2129  0.0177
  229POPX   PO4 2738   1.547   8.455   8.367  0.1613  0.1845 -0.0863
  229POPX   GL1 2739   1.761   8.631   7.995 -0.0191  0.1285 -0.2706
  229POPX   GL2 2740   1.605   8.833   7.881 -0.2085  0.2271  0.2399
  229POPX   C1A 2741   1.878   8.398   7.720  0.1713 -0.0974  0.1310
  229POPX   D2A 2742   1.873   8.109   7.305 -0.0037  0.0314 -0.1631
  229POPX   C3A 2743   2.018   7.989   6.923 -0.1177  0.0074  0.0895
  229POPX   C4A 2744   2.322   7.702   6.681  0.0227  0.0345 -0.0365
  229POPX   C1B 2745   1.443   8.778   7.560 -0.2054  0.2771  0.4465
  229POPX   C2B 2746   1.443   8.777   7.141 -0.0728  0.1444  0.1517
  229POPX   C3B 2747   1.429   8.730   6.644  0.1585 -0.1095 -0.2423
  229POPX   C4B 2748   1.401   8.707   6.144  0.1267 -0.1740 -0.0925
  230POPX   NC3 2749  10.409   4.655   7.637 -0.0873 -0.0742  0.1195
  230POPX   PO4 2750  10.531   4.985   7.395  0.2657  0.0436 -0.0039
  230POPX   GL1 2751  10.546   4.746   7.136  0.1579  0.0495 -0.1783
  230POPX   GL2 2752  10.737   4.568   7.206  0.1875  0.1170  0.0497
  230POPX   C1A 2753  10.643   4.799   6.690 -0.0625  0.0412  0.2199
  230POPX   D2A 2754  10.582   4.709   6.208 -0.0405  0.2724  0.1243
  230POPX   C3A 2755  10.489   4.700   5.786  0.4113 -0.3117  0.0477
  230POPX   C4A 2756  10.485   4.908   5.398  0.1996 -0.0416 -0.2349
  230POPX   C1B 2757  10.880   4.467   6.948  0.2642  0.0580 -0.2111
  230POPX   C2B 2758  10.941   4.437   6.577  0.0194  0.1581 -0.0537
  230POPX   C3B 2759  10.969   4.408   6.080  0.0237 -0.1777  0.0436
  230POPX   C4B 2760  10.933   4.566   5.584  0.2440 -0.0763 -0.1536
  231POPX   NC3 2761  20.436  16.060   7.089  0.3062  0.4685 -0.0245
  231POPX   PO4 2762  20.370  16.412   7.229 -0.0032  0.3529  0.2308
  231POPX   GL1 2763  20.062  16.557   6.991  0.2999  0.3150 -0.4695
  231POPX   GL2 2764  19.892  16.384   6.974 -0.2444  0.2813  0.1377
  231POPX   C1A 2765  20.173  16.554   6.562 -0.1873  0.1257 -0.2639
  231POPX   D2A 2766  20.358  16.792   6.234  0.4760  0.0469  0.0688
  231POPX   C3A 2767  20.697  17.023   6.033 -0.0468 -0.0745 -0.0185
  231POPX   C4A 2768  21.050  17.399   5.750  0.2848  0.3464  0.0863
  231POPX   C1B 2769  19.635  16.404   6.657 -0.3308 -0.4228  0.1958
  231POPX   C2B 2770  19.526  16.379   6.297  0.2368  0.2794  0.1825
  231POPX   C3B 2771  19.516  16.647   5.891  0.1517 -0.1184  0.0353
  231POPX   C4B 2772  19.705  16.857   5.501  0.0838  0.1837 -0.2018
  232POPX   NC3 2773  10.686  10.575   7.946 -0.0060 -0.1339 -0.1512
  232POPX   PO4 2774  10.416  10.715   7.735 -0.0393 -0.1122  0.0973
  232POPX   GL1 2775  10.554  10.783   7.366  0.0280 -0.3408 -0.3189
  232POPX   GL2 2776  10.740  10.972   7.421  0.0510 -0.2111 -0.1304
  232POPX   C1A 2777  10.385  10.724   6.955 -0.1668  0.5086  0.1189
  232POPX   D2A 2778  10.308  10.728   6.468  0.3938 -0.0230  0.2937
  232POPX   C3A 2779  10.479  10.547   6.091  0.1062  0.3551  0.0864
  232POPX   C4A 2780  10.464  10.425   5.622  0.0684 -0.2195  0.2484
  232POPX   C1B 2781  11.045  11.061   7.216  0.0096 -0.0243  0.1693
  232POPX   C2B 2782  11.199  11.179   6.876 -0.2941  0.1148 -0.1324
  232POPX   C3B 2783  11.344  11.097   6.428  0.1600 -0.1273  0.1769
  232POPX   C4B 2784  11.134  10.993   6.009 -0.1403  0.1831  0.1817
  233POPX   NC3 2785  13.883  27.271   7.661 -0.0534  0.0413  0.2233
  233POPX   PO4 2786  13.908  27.670   7.640 -0.2520 -0.0590 -0.1682
  233POPX   GL1 2787  14.104  27.879   7.252  0.1734  0.3406 -0.1484
  233POPX   GL2 2788  14.265  27.554   7.368  0.3384  0.2975  0.0163
  233POPX   C1A 2789  14.218  27.938   6.787 -0.2189  0.0179 -0.4098
  233POPX   D2A 2790  14.133  27.820   6.266 -0.3216  0.0572  0.2756
  233POPX   C3A 2791  14.122  27.684   5.801 -0.2291 -0.3677  0.1853
  233POPX   C4A 2792  14.108  27.289   5.557 -0.0377 -0.0751  0.0346
  233POPX   C1B 2793  14.388  27.560   7.000  0.0009 -0.2912  0.2679
  233POPX   C2B 2794  14.536  27.474   6.594 -0.0152 -0.0140  0.0880
  233POPX   C3B 2795  14.556  27.559   6.076 -0.2598  0.1192 -0.3775
  233POPX   C4B 2796  14.530  28.040   5.926  0.0162  0.1155  0.1460
  234POPX   NC3 2797   1.262  24.703   8.455 -0.0077 -0.1374  0.1437
  234POPX   PO4 2798   1.413  25.009   8.222  0.1282  0.0004  0.0919
  234POPX   GL1 2799   1.416  24.890   7.814 -0.0680  0.2075 -0.5851
  234POPX   GL2 2800   1.113  24.963   7.795  0.1754  0.0074 -0.0699
  234POPX   C1A 2801   1.571  25.035   7.432  0.3735 -0.0472 -0.0589
  234POPX   D2A 2802   1.659  24.959   6.951  0.0627  0.0604 -0.4299
  234POPX   C3A 2803   1.709  25.004   6.480  0.0837 -0.2926  0.1959
  234POPX   C4A 2804   1.717  24.924   5.962 -0.1071 -0.2007  0.2068
  234POPX   C1B 2805   1.028  24.982   7.422  0.0829 -0.0061  0.0812
  234POPX   C2B 2806   1.149  25.138   7.076 -0.0593 -0.1800 -0.1733
  234POPX   C3B 2807   1.233  25.253   6.631  0.0785  0.0047 -0.0789
  234POPX   C4B 2808   1.356  25.207   6.177 -0.0411 -0.1593  0.1803
  235POPX   NC3 2809   6.843   1.050   7.561  0.2612  0.2947 -0.1011
  235POPX   PO4 2810   7.258   1.145   7.510  0.2183  0.3327  0.1428
  235POPX   GL1 2811   7.585   0.933   7.279 -0.1811  0.2143 -0.2995
  235POPX   GL2 2812   7.336   0.747   7.157 -0.0087  0.1703  0.1798
  235POPX   C1A 2813   7.789   0.641   6.988  0.1599 -0.1829  0.0159
  235POPX   D2A 2814   7.950   0.451   6.513 -0.0706  0.2944 -0.2328
  235POPX   C3A 2815   7.719   0.273   6.109 -0.1424 -0.0012  0.0570
  235POPX   C4A 2816   7.739   0.087   5.696  0.1001  0.1336  0.1968
  235POPX   C1B 2817   7.203   0.535   6.868 -0.0577  0.5348  0.1887
  235POPX   C2B 2818   6.984   0.326   6.580  0.1163  0.1764  0.0675
  235POPX   C3B 2819   6.816   0.122   6.182 -0.0119  0.1764 -0.1323
  235POPX   C4B 2820   6.858  -0.116   5.695  0.1649  0.1532 -0.4914
  236POPX   NC3 2821  14.438   0.761   8.028  0.1320  0.1767  0.0688
  236POPX   PO4 2822  14.497   1.105   7.809  0.0600 -0.3148 -0.0980
  236POPX   GL1 2823  14.930   1.210   7.703  0.2546  0.0408  0.2868
  236POPX   GL2 2824  14.817   1.444   7.640 -0.0016 -0.1502 -0.0224
  236POPX   C1A 2825  15.137   0.953   7.381  0.0278 -0.0691  0.1953
  236POPX   D2A 2826  15.190   0.635   7.045  0.1268 -0.1945  0.3738
  236POPX   C3A 2827  15.106   0.688   6.589 -0.0577  0.0291  0.1271
  236POPX   C4A 2828  15.329   0.651   6.131 -0.1852  0.1204 -0.1061
  236POPX   C1B 2829  14.933   1.616   7.301  0.2033  0.1809 -0.2007
  236POPX   C2B 2830  14.951   1.767   6.924  0.4027  0.1667 -0.0230
  236POPX   C3B 2831  15.053   1.953   6.515  0.0372 -0.3873 -0.1072
  236POPX   C4B 2832  14.971   1.834   6.068 -0.0041 -0.2507  0.1264
  237POPX   NC3 2833   2.371   2.631   7.580 -0.2313 -0.3008  0.0925
  237POPX   PO4 2834   2.034   2.558   7.340 -0.1970  0.0032 -0.0783
  237POPX   GL1 2835   2.061   2.139   7.093  0.2146 -0.0954 -0.3933
  237POPX   GL2 2836   2.058   2.313   6.953  0.0742 -0.0932 -0.0442
  237POPX   C1A 2837   2.423   1.983   6.850  0.3374 -0.0052 -0.0305
  237POPX   D2A 2838   2.641   1.917   6.406 -0.0541  0.0504 -0.1389
  237POPX   C3A 2839   2.764   2.127   5.992 -0.0885  0.0751 -0.0093
  237POPX   C4A 2840   3.058   1.815   5.742 -0.2385  0.0736  0.1932
  237POPX   C1B 2841   2.090   2.174   6.617 -0.2306 -0.1770 -0.3750
  237POPX   C2B 2842   2.186   2.151   6.227  0.1442 -0.2886  0.0688
  237POPX   C3B 2843   2.257   1.951   5.816 -0.4060 -0.1215 -0.0255
  237POPX   C4B 2844   2.584   1.622   5.631  0.4488  0.2828  0.0161
  238POPX   NC3 2845  11.881   7.478   7.572 -0.0228 -0.0517 -0.0360
  238POPX   PO4 2846  12.147   7.199   7.770  0.1414 -0.0266  0.2215
  238POPX   GL1 2847  12.086   6.849   7.517  0.0400  0.1985  0.0750
  238POPX   GL2 2848  12.388   6.985   7.470 -0.1200 -0.1568 -0.6377
  238POPX   C1A 2849  12.118   6.593   7.137 -0.0682 -0.1933 -0.0624
  238POPX   D2A 2850  12.307   6.581   6.629 -0.0138  0.0931 -0.2491
  238POPX   C3A 2851  12.342   6.485   6.181  0.0198 -0.0413 -0.0839
  238POPX   C4A 2852  12.601   6.532   5.763 -0.0413 -0.0094  0.1543
  238POPX   C1B 2853  12.622   7.054   7.154 -0.0534 -0.1586 -0.4710
  238POPX   C2B 2854  12.810   7.207   6.818  0.0424  0.1784  0.2067
  238POPX   C3B 2855  13.029   7.226   6.377 -0.1428  0.2345  0.2403
  238POPX   C4B 2856  13.018   7.174   5.911  0.0349 -0.0273  0.0262
  239POPX   NC3 2857  10.817  18.045   7.605  0.2463 -0.1187  0.2765
  239POPX   PO4 2858  10.614  17.726   7.521 -0.2255 -0.2022 -0.1245
  239POPX   GL1 2859  10.662  17.361   7.340  0.2762 -0.2470 -0.0189
  239POPX   GL2 2860  10.416  17.371   7.258 -0.0313 -0.1943 -0.0071
  239POPX   C1A 2861  10.985  17.346   7.122 -0.0349  0.0153 -0.0326
  239POPX   D2A 2862  10.854  17.518   6.673  0.1846  0.0378 -0.0095
  239POPX   C3A 2863  10.806  17.516   6.191  0.1193 -0.0793  0.1430
  239POPX   C4A 2864  10.669  17.662   5.767 -0.1322 -0.0133  0.1432
  239POPX   C1B 2865  10.440  17.568   6.966 -0.0944  0.3004 -0.2031
  239POPX   C2B 2866  10.352  17.624   6.580  0.3234  0.2827  0.4780
  239POPX   C3B 2867  10.302  17.775   6.107 -0.2667  0.1712 -0.0105
  239POPX   C4B 2868  10.273  18.046   5.735  0.3933  0.2569 -0.0810
  240POPX   NC3 2869  13.859  16.990   7.521  0.1619 -0.0130 -0.0154
  240POPX   PO4 2870  14.128  16.713   7.427 -0.1269  0.2735  0.0286
  240POPX   GL1 2871  14.105  16.752   7.040  0.2690 -0.1035  0.1659
  240POPX   GL2 2872  13.822  16.731   6.972 -0.0469  0.1334  0.0001
  240POPX   C1A 2873  14.439  16.866   6.789  0.0793  0.1068 -0.0467
  240POPX   D2A 2874  14.666  16.781   6.346 -0.2189  0.2203 -0.1771
  240POPX   C3A 2875  14.958  16.937   5.991  0.2539  0.2115  0.2304
  240POPX   C4A 2876  15.146  17.280   5.657  0.0719  0.0431  0.1318
  240POPX   C1B 2877  13.982  16.780   6.655  0.2178 -0.3377 -0.2010
  240POPX   C2B 2878  14.084  16.724   6.304  0.0996  0.0749 -0.1707
  240POPX   C3B 2879  14.259  16.703   5.795  0.0623  0.1280  0.1661
  240POPX   C4B 2880  14.123  16.512   5.402 -0.3717  0.1543 -0.0883
  241POPX   NC3 2881  21.528  15.315   7.663  0.0763 -0.1101  0.1576
  241POPX   PO4 2882  21.650  15.136   7.311 -0.0959 -0.1217  0.2040
  241POPX   GL1 2883  21.775  15.308   7.004  0.0646  0.1279 -0.2618
  241POPX   GL2 2884  21.509  15.196   6.867  0.0276  0.2735 -0.0967
  241POPX   C1A 2885  21.703  15.644   6.839  0.2266 -0.0775 -0.1435
  241POPX   D2A 2886  21.671  15.894   6.380 -0.1508  0.0824  0.0444
  241POPX   C3A 2887  22.016  15.902   5.989  0.1234  0.0358 -0.0450
  241POPX   C4A 2888  22.275  16.114   5.706 -0.0824 -0.3088  0.2992
  241POPX   C1B 2889  21.385  15.082   6.568  0.0283  0.2173  0.0892
  241POPX   C2B 2890  21.245  15.109   6.198  0.0573  0.1701  0.3173
  241POPX   C3B 2891  21.352  15.341   5.820  0.3230 -0.0825 -0.0906
  241POPX   C4B 2892  21.219  15.676   5.467 -0.0312 -0.2271  0.2774
  242POPX   NC3 2893  21.591  12.539   7.439  0.0100  0.1573 -0.1959
  242POPX   PO4 2894  21.328  12.827   7.358 -0.0082 -0.0214  0.1167
  242POPX   GL1 2895  21.534  12.709   7.026 -0.1015 -0.0445 -0.3401
  242POPX   GL2 2896  21.419  12.355   7.045  0.3164  0.2564 -0.0365
  242POPX   C1A 2897  21.529  12.813   6.600 -0.1306 -0.1455 -0.0637
  242POPX   D2A 2898  21.259  12.750   6.220  0.0552  0.3252  0.3542
  242POPX   C3A 2899  20.999  12.624   5.899 -0.1278 -0.0247  0.1538
  242POPX   C4A 2900  21.166  12.487   5.477  0.2849 -0.2109  0.1848
  242POPX   C1B 2901  21.590  12.113   6.810  0.3498 -0.4085 -0.1443
  242POPX   C2B 2902  21.495  11.906   6.471 -0.1256  0.1093 -0.0764
  242POPX   C3B 2903  21.251  11.758   6.038 -0.2047 -0.2493  0.1173
  242POPX   C4B 2904  20.782  11.889   5.878 -0.0415 -0.1990  0.1892
  243POPX   NC3 2905   1.813  12.914   7.706  0.1812  0.1028  0.0416
  243POPX   PO4 2906   1.676  13.005   7.335  0.3011 -0.1336  0.3711
  243POPX   GL1 2907   1.791  12.643   7.058 -0.2367 -0.1559  0.1852
  243POPX   GL2 2908   1.762  12.489   7.260 -0.2411  0.0903 -0.3402
  243POPX   C1A 2909   1.787  12.571   6.613 -0.2483  0.0818 -0.0033
  243POPX   D2A 2910   1.772  12.357   6.221 -0.0434  0.1464  0.0322
  243POPX   C3A 2911   1.828  12.246   5.748 -0.1477 -0.0697  0.0018
  243POPX   C4A 2912   2.048  12.093   5.221 -0.0659 -0.1607  0.0786
  243POPX   C1B 2913   1.941  12.220   7.025 -0.3563  0.2307 -0.3133
  243POPX   C2B 2914   2.103  12.067   6.621  0.4181 -0.0411  0.0643
  243POPX   C3B 2915   1.994  11.856   6.169  0.1468 -0.0864  0.2577
  243POPX   C4B 2916   2.038  11.370   6.058  0.0858  0.1410 -0.1756
  244POPX   NC3 2917   3.028  18.894   7.655 -0.2742 -0.0157  0.0193
  244POPX   PO4 2918   2.637  18.845   7.675  0.0913 -0.0913  0.1188
  244POPX   GL1 2919   2.779  18.752   7.247  0.0251  0.1434 -0.0781
  244POPX   GL2 2920   2.673  18.505   7.279  0.1717  0.0740 -0.1715
  244POPX   C1A 2921   2.711  19.011   6.864 -0.1024  0.0250 -0.0834
  244POPX   D2A 2922   2.602  18.941   6.329 -0.4574 -0.0597  0.2293
  244POPX   C3A 2923   2.169  18.927   6.217  0.2571  0.2780 -0.0490
  244POPX   C4A 2924   1.750  19.241   6.166 -0.1873 -0.3084  0.1614
  244POPX   C1B 2925   2.564  18.196   7.125  0.1495 -0.1419 -0.1376
  244POPX   C2B 2926   2.308  17.952   6.935  0.1198  0.0747  0.0836
  244POPX   C3B 2927   1.890  18.235   6.764 -0.1424 -0.0367 -0.1053
  244POPX   C4B 2928   1.407  18.306   6.522 -0.0311  0.0498 -0.4715
  245POPX   NC3 2929  27.375  15.183   8.071 -0.0879 -0.0028 -0.1916
  245POPX   PO4 2930  27.016  15.257   7.860 -0.0010  0.1013 -0.1207
  245POPX   GL1 2931  26.793  15.349   7.476 -0.1199 -0.0567  0.0435
  245POPX   GL2 2932  26.631  15.090   7.503 -0.2077 -0.3306 -0.0422
  245POPX   C1A 2933  26.690  15.213   7.084 -0.1529 -0.1104  0.2926
  245POPX   D2A 2934  26.753  15.243   6.606 -0.2402  0.0146 -0.3042
  245POPX   C3A 2935  26.884  15.194   6.174  0.2810  0.1049 -0.2394
  245POPX   C4A 2936  27.158  15.455   5.864  0.1598  0.0335  0.0180
  245POPX   C1B 2937  26.813  14.777   7.515 -0.1995 -0.0921  0.4059
  245POPX   C2B 2938  26.924  14.426   7.278 -0.3293  0.3053  0.1892
  245POPX   C3B 2939  27.168  14.072   7.086  0.0499  0.4235  0.0089
  245POPX   C4B 2940  27.040  14.123   6.626  0.2375 -0.1209  0.0982
  246POPX   NC3 2941  12.912  22.250   7.554 -0.0325 -0.1792  0.0306
  246POPX   PO4 2942  13.106  21.959   7.457 -0.0230 -0.2565  0.0054
  246POPX   GL1 2943  13.358  22.169   7.139 -0.1622 -0.3133 -0.2184
  246POPX   GL2 2944  13.351  22.438   7.241  0.2730 -0.2554 -0.1360
  246POPX   C1A 2945  13.277  22.020   6.778 -0.2651 -0.3338 -0.1247
  246POPX   D2A 2946  13.089  22.335   6.403  0.3404 -0.0566 -0.2158
  246POPX   C3A 2947  13.079  22.085   6.034  0.0375 -0.6078  0.0989
  246POPX   C4A 2948  13.064  22.135   5.571  0.1169  0.0368  0.0768
  246POPX   C1B 2949  13.567  22.560   6.968  0.2802 -0.1704  0.2641
  246POPX   C2B 2950  13.557  22.418   6.582 -0.0178 -0.2277 -0.0768
  246POPX   C3B 2951  13.520  22.365   6.084  0.1954 -0.3345 -0.0307
  246POPX   C4B 2952  13.733  22.532   5.621 -0.0501  0.1077 -0.3178
  247POPX   NC3 2953  15.245  19.242   7.722  0.2266  0.0821  0.1437
  247POPX   PO4 2954  15.073  18.861   7.804 -0.0257 -0.0427 -0.0198
  247POPX   GL1 2955  15.053  18.677   7.398  0.0134  0.0638  0.2474
  247POPX   GL2 2956  15.342  18.718   7.346  0.2782  0.1739  0.2038
  247POPX   C1A 2957  14.790  18.628   7.019 -0.2245  0.1929  0.2545
  247POPX   D2A 2958  14.549  18.733   6.590 -0.0941 -0.0512 -0.0430
  247POPX   C3A 2959  14.448  18.833   6.134  0.0469  0.0854 -0.2486
  247POPX   C4A 2960  14.487  18.990   5.718  0.0622 -0.0900 -0.0949
  247POPX   C1B 2961  15.612  18.848   7.054  0.0463  0.0299 -0.2643
  247POPX   C2B 2962  15.644  18.832   6.662 -0.0344  0.1753 -0.0482
  247POPX   C3B 2963  15.552  18.947   6.226 -0.0899 -0.1246 -0.2035
  247POPX   C4B 2964  15.485  19.114   5.766 -0.2148  0.0011  0.2613
  248POPX   NC3 2965  26.642  25.008   7.641 -0.1366  0.0427 -0.1074
  248POPX   PO4 2966  27.050  25.089   7.576  0.1211  0.1677  0.3305
  248POPX   GL1 2967  27.150  25.020   7.189 -0.1370 -0.0376 -0.3604
  248POPX   GL2 2968  27.453  25.030   7.192  0.0448  0.3599 -0.0813
  248POPX   C1A 2969  27.193  24.710   6.927  0.1682 -0.3144 -0.1904
  248POPX   D2A 2970  27.348  24.652   6.469 -0.1605  0.0140 -0.2106
  248POPX   C3A 2971  27.620  24.464   6.098 -0.0545 -0.2005  0.0323
  248POPX   C4A 2972  27.814  24.003   6.074 -0.2055 -0.2678  0.0814
  248POPX   C1B 2973  27.605  24.898   6.871 -0.2244 -0.1612 -0.0296
  248POPX   C2B 2974  27.783  24.940   6.528 -0.0054  0.0591  0.1418
  248POPX   C3B 2975  28.021  25.158   6.199  0.1430 -0.0131  0.0076
  248POPX   C4B 2976  28.101  25.374   5.767 -0.1074  0.0123 -0.2401
  249POPX   NC3 2977  23.442  24.909   7.964  0.1027  0.0561 -0.4458
  249POPX   PO4 2978  23.554  24.788   7.604  0.0263 -0.0206 -0.3083
  249POPX   GL1 2979  23.697  24.520   7.361 -0.0460 -0.2407 -0.1124
  249POPX   GL2 2980  23.878  24.588   7.150 -0.2680 -0.1014  0.0354
  249POPX   C1A 2981  23.520  24.321   7.011  0.0357  0.1439  0.0411
  249POPX   D2A 2982  23.292  24.501   6.614 -0.2648 -0.0643 -0.0740
  249POPX   C3A 2983  23.021  24.345   6.263 -0.0696  0.0926 -0.0998
  249POPX   C4A 2984  22.715  24.243   5.866  0.2116 -0.1230  0.0239
  249POPX   C1B 2985  23.756  24.717   6.847 -0.0337 -0.1069 -0.0350
  249POPX   C2B 2986  23.667  24.806   6.445  0.1504 -0.0865 -0.1878
  249POPX   C3B 2987  23.194  24.826   6.215  0.1563 -0.3368 -0.2163
  249POPX   C4B 2988  22.941  24.944   5.808  0.4337 -0.0097 -0.0984
  250POPX   NC3 2989  20.595   5.854   7.725 -0.1042 -0.1416  0.0531
  250POPX   PO4 2990  20.608   5.798   7.307 -0.2063  0.1048  0.3383
  250POPX   GL1 2991  20.455   5.663   6.980 -0.0966 -0.3028  0.0032
  250POPX   GL2 2992  20.193   5.678   7.071  0.1084 -0.4835 -0.0729
  250POPX   C1A 2993  20.550   5.314   6.726  0.0582  0.3486  0.2784
  250POPX   D2A 2994  20.473   4.877   6.590  0.1333  0.1727  0.1267
  250POPX   C3A 2995  20.379   5.078   6.161 -0.1116 -0.0712  0.0993
  250POPX   C4A 2996  20.509   4.941   5.680 -0.0909  0.1309 -0.0255
  250POPX   C1B 2997  19.864   5.626   6.918 -0.0254 -0.1130  0.0201
  250POPX   C2B 2998  19.670   5.711   6.468 -0.0699 -0.1386  0.1515
  250POPX   C3B 2999  19.410   5.488   6.092  0.4016 -0.0473 -0.0064
  250POPX   C4B 3000  19.094   5.771   5.785  0.1655  0.3014  0.2795
  251POPX   NC3 3001   0.416  26.088   8.146  0.1789 -0.2013  0.2460
  251POPX   PO4 3002   0.655  26.209   7.852 -0.0128  0.0349  0.1288
  251POPX   GL1 3003   0.745  26.287   7.482  0.0548  0.0335  0.4836
  251POPX   GL2 3004   0.656  26.000   7.376 -0.1415 -0.0671  0.2298
  251POPX   C1A 3005   0.662  26.578   7.091 -0.1455  0.0715  0.2981
  251POPX   D2A 3006   0.495  27.044   6.942  0.2164 -0.1185  0.3745
  251POPX   C3A 3007   0.643  27.150   6.557 -0.1302 -0.0564 -0.0768
  251POPX   C4A 3008   0.942  27.036   6.164  0.0481  0.0483 -0.2938
  251POPX   C1B 3009   0.702  26.124   7.014  0.4382  0.2522 -0.2092
  251POPX   C2B 3010   0.630  26.335   6.678  0.3668 -0.1591  0.2239
  251POPX   C3B 3011   0.490  26.103   6.262 -0.3436 -0.2503  0.0691
  251POPX   C4B 3012   0.320  25.752   5.983  0.4104 -0.0098  0.2260
  252POPX   NC3 3013  12.604   2.875   8.261  0.0747 -0.0391 -0.1940
  252POPX   PO4 3014  12.615   2.506   8.054  0.0405 -0.1004  0.1968
  252POPX   GL1 3015  12.611   2.386   7.606 -0.4647 -0.4001 -0.2615
  252POPX   GL2 3016  12.614   2.703   7.567  0.2560 -0.0906  0.1379
  252POPX   C1A 3017  12.633   2.051   7.295 -0.0742  0.0137  0.0574
  252POPX   D2A 3018  12.697   1.748   6.942  0.3258 -0.2524 -0.0347
  252POPX   C3A 3019  12.657   1.771   6.472  0.4842  0.0956  0.1446
  252POPX   C4A 3020  12.693   1.901   6.070  0.2797  0.1779  0.0422
  252POPX   C1B 3021  12.405   2.672   7.209 -0.0565  0.0910 -0.0573
  252POPX   C2B 3022  12.247   2.632   6.844 -0.3107  0.2383  0.0067
  252POPX   C3B 3023  12.166   2.603   6.393 -0.0815 -0.3673  0.3895
  252POPX   C4B 3024  12.178   2.775   5.898 -0.1827  0.2235  0.3916
  253POPX   NC3 3025  18.609  19.869   7.302  0.1933 -0.2304 -0.0389
  253POPX   PO4 3026  18.917  20.105   7.370  0.4360  0.2491  0.2506
  253POPX   GL1 3027  18.950  20.033   7.030  0.0813  0.0215  0.1207
  253POPX   GL2 3028  18.656  20.105   6.942 -0.5119 -0.0947  0.2289
  253POPX   C1A 3029  19.240  19.767   6.810  0.3066 -0.3315  0.0679
  253POPX   D2A 3030  19.241  19.351   6.564  0.2239 -0.0316  0.1308
  253POPX   C3A 3031  18.946  19.296   6.171  0.0749  0.4055 -0.0130
  253POPX   C4A 3032  18.749  19.113   5.703  0.0533 -0.2334  0.2129
  253POPX   C1B 3033  18.611  20.158   6.548  0.2098  0.0031 -0.0704
  253POPX   C2B 3034  18.494  20.059   6.172 -0.1443  0.4240 -0.3057
  253POPX   C3B 3035  18.259  20.012   5.823  0.0637  0.2679 -0.0041
  253POPX   C4B 3036  18.286  20.252   5.430  0.1941 -0.0183 -0.0381
  254POPX   NC3 3037  18.425   4.122   7.566  0.1844 -0.1026  0.3314
  254POPX   PO4 3038  18.631   3.983   7.292 -0.1431 -0.0586 -0.0788
  254POPX   GL1 3039  18.782   3.709   6.961  0.0906 -0.3519 -0.0113
  254POPX   GL2 3040  18.549   3.510   7.052 -0.1361  0.0424 -0.0762
  254POPX   C1A 3041  18.805   3.615   6.542  0.0004  0.2454  0.1129
  254POPX   D2A 3042  18.720   3.444   6.094  0.1645  0.0221  0.1513
  254POPX   C3A 3043  18.588   3.417   5.588 -0.0054  0.0280  0.2739
  254POPX   C4A 3044  18.447   3.514   5.088  0.1600 -0.2589  0.0920
  254POPX   C1B 3045  18.760   3.249   6.973  0.2433 -0.3451 -0.2728
  254POPX   C2B 3046  18.765   3.025   6.654  0.2750 -0.1467  0.1302
  254POPX   C3B 3047  18.970   2.703   6.319  0.2245 -0.0618  0.4702
  254POPX   C4B 3048  19.084   2.626   5.872 -0.0630  0.0744 -0.0481
  255POPX   NC3 3049   7.406  11.687   7.383  0.0996 -0.3980 -0.1329
  255POPX   PO4 3050   7.675  11.418   7.329 -0.0419  0.4064 -0.0624
  255POPX   GL1 3051   7.807  11.256   6.918 -0.0343 -0.1501 -0.3227
  255POPX   GL2 3052   7.546  11.104   6.836 -0.0895 -0.1596  0.3875
  255POPX   C1A 3053   7.866  11.306   6.488  0.1189 -0.0041  0.1802
  255POPX   D2A 3054   7.618  11.044   6.117  0.2293 -0.2511  0.0822
  255POPX   C3A 3055   7.800  10.907   5.717  0.1859  0.0297  0.0183
  255POPX   C4A 3056   7.665  10.854   5.258 -0.0469 -0.0220 -0.1692
  255POPX   C1B 3057   7.344  11.159   6.506  0.3404  0.0100  0.0998
  255POPX   C2B 3058   7.210  11.310   6.178 -0.2701  0.0715  0.1814
  255POPX   C3B 3059   7.394  11.305   5.762  0.1865  0.1681  0.0428
  255POPX   C4B 3060   7.780  11.365   5.423  0.3870 -0.0443 -0.0774
  256POPX   NC3 3061   0.327  13.600   8.184  0.0234  0.1809  0.1400
  256POPX   PO4 3062   0.509  13.473   7.865 -0.1357 -0.0433 -0.0316
  256POPX   GL1 3063   0.317  13.297   7.565 -0.0718 -0.2813  0.0613
  256POPX   GL2 3064   0.256  12.978   7.730 -0.0265 -0.2196  0.0351
  256POPX   C1A 3065   0.233  13.369   7.157  0.2431 -0.0066 -0.2357
  256POPX   D2A 3066   0.476  13.719   6.896  0.1300 -0.1429 -0.0918
  256POPX   C3A 3067   0.492  13.722   6.427  0.0576 -0.0921  0.2197
  256POPX   C4A 3068   0.569  13.868   5.961 -0.1415 -0.5976 -0.1820
  256POPX   C1B 3069   0.234  12.957   7.316  0.1335  0.1266 -0.1184
  256POPX   C2B 3070   0.119  12.951   6.916  0.0360  0.0669  0.3233
  256POPX   C3B 3071  -0.291  12.871   6.643 -0.4861  0.0056 -0.0997
  256POPX   C4B 3072  -0.598  13.028   6.288 -0.0109 -0.3257 -0.0534
  257POPX   NC3 3073   3.348  13.351   7.440 -0.1664 -0.2501  0.4355
  257POPX   PO4 3074   3.247  13.741   7.560  0.0512  0.0660  0.2994
  257POPX   GL1 3075   3.364  13.932   7.111 -0.2020 -0.0959 -0.2331
  257POPX   GL2 3076   3.571  13.741   7.133 -0.0430  0.0004  0.1406
  257POPX   C1A 3077   3.203  13.965   6.678 -0.3066  0.1491 -0.1840
  257POPX   D2A 3078   3.007  14.213   6.257  0.0382  0.4374  0.3627
  257POPX   C3A 3079   2.743  14.524   6.106  0.0107 -0.0337  0.0405
  257POPX   C4A 3080   2.619  14.830   5.733 -0.0929 -0.3697 -0.1628
  257POPX   C1B 3081   3.534  13.640   6.753 -0.4388 -0.0789 -0.0608
  257POPX   C2B 3082   3.614  13.636   6.335  0.1707  0.1172  0.1615
  257POPX   C3B 3083   3.698  13.653   5.859  0.1657  0.1817 -0.0716
  257POPX   C4B 3084   3.722  13.519   5.369 -0.2401  0.2581  0.0720
  258POPX   NC3 3085   6.797   5.126   7.048  0.0772  0.0893 -0.3253
  258POPX   PO4 3086   6.556   4.875   7.206  0.3047  0.2051  0.1968
  258POPX   GL1 3087   6.257   5.142   7.005 -0.1223  0.1250  0.0250
  258POPX   GL2 3088   6.072   4.834   7.143 -0.1572 -0.2414 -0.1109
  258POPX   C1A 3089   6.092   5.162   6.532 -0.1498 -0.2567 -0.2347
  258POPX   D2A 3090   5.767   5.126   6.113  0.2165  0.0953 -0.0468
  258POPX   C3A 3091   5.581   5.244   5.722 -0.0990 -0.1333 -0.1573
  258POPX   C4A 3092   5.323   5.276   5.315  0.1682 -0.1104 -0.0363
  258POPX   C1B 3093   5.815   4.773   6.802 -0.2593 -0.1175  0.3346
  258POPX   C2B 3094   5.708   4.699   6.388 -0.3604 -0.0749 -0.0291
  258POPX   C3B 3095   5.573   4.664   5.902  0.0142 -0.1264  0.1298
  258POPX   C4B 3096   5.672   4.527   5.423  0.2282  0.1182 -0.1025
  259POPX   NC3 3097  14.180   2.356   7.880  0.0198 -0.0144  0.2843
  259POPX   PO4 3098  14.082   2.712   7.978  0.0860  0.3934 -0.0225
  259POPX   GL1 3099  14.136   2.978   7.646 -0.0159  0.3723  0.2476
  259POPX   GL2 3100  13.882   3.059   7.628  0.2673  0.1150  0.1849
  259POPX   C1A 3101  14.246   2.988   7.186  0.0559 -0.1711 -0.1464
  259POPX   D2A 3102  14.122   2.843   6.761  0.1369 -0.0742 -0.0029
  259POPX   C3A 3103  14.164   2.837   6.233  0.0334 -0.0715 -0.2655
  259POPX   C4A 3104  14.341   2.591   5.823 -0.0045  0.3221 -0.0354
  259POPX   C1B 3105  13.828   3.187   7.243 -0.2230  0.1074 -0.4214
  259POPX   C2B 3106  13.840   3.233   6.862  0.0221  0.3525  0.1186
  259POPX   C3B 3107  14.078   3.348   6.366  0.0857  0.2341  0.2850
  259POPX   C4B 3108  14.292   3.322   5.924  0.0305  0.1848 -0.0642
  260POPX   NC3 3109  24.796   3.063   8.270  0.2041  0.2684  0.1798
  260POPX   PO4 3110  24.573   3.147   7.987 -0.0672 -0.0087  0.2563
  260POPX   GL1 3111  24.769   3.235   7.647 -0.1169 -0.1046 -0.0815
  260POPX   GL2 3112  24.651   3.095   7.470 -0.4546 -0.1523 -0.1779
  260POPX   C1A 3113  25.115   3.447   7.455 -0.0857  0.1214 -0.2054
  260POPX   D2A 3114  25.357   3.569   7.050  0.1035 -0.0136 -0.1193
  260POPX   C3A 3115  25.530   3.584   6.641 -0.1496 -0.1100  0.0032
  260POPX   C4A 3116  25.931   3.560   6.387  0.0782  0.3524 -0.1816
  260POPX   C1B 3117  24.847   3.243   7.117  0.3166 -0.0713 -0.3731
  260POPX   C2B 3118  25.051   3.359   6.764  0.0960  0.2763 -0.1334
  260POPX   C3B 3119  25.259   3.469   6.251 -0.2652 -0.0736 -0.0069
  260POPX   C4B 3120  25.453   3.522   5.813 -0.0593  0.3816 -0.2994
  261POPX   NC3 3121   8.116  12.854   7.279 -0.1505 -0.0447 -0.1806
  261POPX   PO4 3122   8.335  12.581   7.116  0.1755 -0.1947 -0.0313
  261POPX   GL1 3123   8.322  12.502   6.679 -0.2389  0.0351  0.2031
  261POPX   GL2 3124   8.482  12.284   6.704 -0.1335 -0.0134 -0.2446
  261POPX   C1A 3125   8.209  12.605   6.267 -0.0062 -0.3173  0.1886
  261POPX   D2A 3126   8.329  12.742   5.767  0.0801 -0.0651 -0.0027
  261POPX   C3A 3127   8.055  13.044   5.517  0.1369  0.0389 -0.0530
  261POPX   C4A 3128   8.093  13.163   5.053  0.0666 -0.2623  0.1950
  261POPX   C1B 3129   8.523  12.275   6.369  0.0494  0.3013  0.1212
  261POPX   C2B 3130   8.637  12.246   5.984 -0.1309 -0.1773 -0.0252
  261POPX   C3B 3131   8.791  12.346   5.505  0.0053 -0.3696 -0.1957
  261POPX   C4B 3132   9.093  11.993   5.415  0.2639  0.0990 -0.0680
  262POPX   NC3 3133  19.062  13.945   7.742 -0.2070 -0.2652 -0.0431
  262POPX   PO4 3134  19.222  13.749   7.442  0.3360 -0.0313 -0.2194
  262POPX   GL1 3135  19.047  13.880   7.102  0.2282 -0.0861 -0.0939
  262POPX   GL2 3136  18.888  13.700   7.000  0.1692 -0.0102 -0.0130
  262POPX   C1A 3137  19.242  13.953   6.728 -0.1284 -0.0182  0.1363
  262POPX   D2A 3138  19.699  14.036   6.500  0.1248  0.3719  0.0730
  262POPX   C3A 3139  19.886  14.216   6.137  0.1567  0.0207  0.0396
  262POPX   C4A 3140  20.047  14.520   5.830 -0.1011 -0.1934 -0.3132
  262POPX   C1B 3141  18.866  13.649   6.609 -0.0198  0.2305  0.1629
  262POPX   C2B 3142  18.871  13.631   6.153  0.0737  0.0563 -0.0350
  262POPX   C3B 3143  18.904  13.458   5.752 -0.3411 -0.0002 -0.0095
  262POPX   C4B 3144  19.281  13.402   5.429  0.3266  0.4503 -0.2187
  263POPX   NC3 3145  16.892  12.068   7.336  0.1925 -0.0470 -0.1063
  263POPX   PO4 3146  16.901  11.711   7.168  0.1550  0.0645 -0.0207
  263POPX   GL1 3147  16.791  11.573   6.749  0.0324  0.2393  0.0496
  263POPX   GL2 3148  17.095  11.463   6.818 -0.0697 -0.2427 -0.0284
  263POPX   C1A 3149  16.873  11.411   6.363  0.0583  0.2407  0.0211
  263POPX   D2A 3150  16.752  11.279   5.938  0.0344 -0.0548 -0.0607
  263POPX   C3A 3151  16.818  10.959   5.597  0.0500  0.0610 -0.1031
  263POPX   C4A 3152  17.268  10.855   5.449 -0.2969  0.1524  0.2129
  263POPX   C1B 3153  17.238  11.274   6.559 -0.1406  0.1695 -0.0467
  263POPX   C2B 3154  17.441  11.061   6.268 -0.1382  0.3202 -0.1149
  263POPX   C3B 3155  17.669  10.810   5.835  0.0412  0.3032  0.1850
  263POPX   C4B 3156  17.952  10.555   5.494 -0.1459 -0.1114 -0.0682
  264POPX   NC3 3157  14.675  24.468   7.531 -0.1185 -0.2093 -0.4337
  264POPX   PO4 3158  14.558  24.139   7.658 -0.2367  0.2590  0.2582
  264POPX   GL1 3159  14.526  24.072   7.242 -0.3467 -0.1055 -0.2754
  264POPX   GL2 3160  14.820  24.126   7.251 -0.0703  0.0077  0.0533
  264POPX   C1A 3161  14.375  24.237   6.875 -0.1531  0.0432  0.1184
  264POPX   D2A 3162  14.197  24.254   6.466  0.1231  0.1617  0.0802
  264POPX   C3A 3163  14.170  24.586   6.154  0.0401 -0.0521  0.1879
  264POPX   C4A 3164  14.042  25.003   5.966 -0.0344 -0.2483 -0.0273
  264POPX   C1B 3165  14.844  24.400   6.941 -0.0577 -0.6052  0.1515
  264POPX   C2B 3166  14.826  24.521   6.527 -0.0192 -0.1011 -0.0615
  264POPX   C3B 3167  14.795  24.520   6.087  0.1401  0.0676  0.0951
  264POPX   C4B 3168  15.059  24.714   5.777 -0.3621  0.3941 -0.0358
  265POPX   NC3 3169   3.611  12.014   7.732 -0.1574 -0.0189  0.0782
  265POPX   PO4 3170   3.186  12.010   7.794 -0.1377  0.3801 -0.2348
  265POPX   GL1 3171   3.077  11.929   7.411  0.1315  0.0537 -0.1361
  265POPX   GL2 3172   2.942  12.217   7.352 -0.4468 -0.0247  0.1027
  265POPX   C1A 3173   3.108  11.699   7.073 -0.0065  0.0551  0.0245
  265POPX   D2A 3174   3.000  11.254   6.820  0.3880 -0.1638 -0.3493
  265POPX   C3A 3175   2.934  11.177   6.391  0.0254 -0.2260  0.0345
  265POPX   C4A 3176   2.882  11.115   5.912  0.1738  0.1194  0.3348
  265POPX   C1B 3177   3.021  12.419   7.008 -0.4268  0.1919 -0.0734
  265POPX   C2B 3178   3.037  12.472   6.592  0.0479  0.1237  0.0662
  265POPX   C3B 3179   2.765  12.624   6.248  0.3243 -0.1732  0.1004
  265POPX   C4B 3180   2.785  12.909   5.866 -0.1190 -0.0620 -0.0988
  266POPX   NC3 3181  13.294  24.879   8.444  0.1026  0.2892 -0.0195
  266POPX   PO4 3182  13.356  25.229   8.342  0.0372 -0.2292  0.0407
  266POPX   GL1 3183  13.344  25.434   7.970  0.0047 -0.0355  0.2014
  266POPX   GL2 3184  13.568  25.185   8.037  0.0920  0.3145 -0.0882
  266POPX   C1A 3185  13.169  25.540   7.597 -0.0116  0.1277 -0.2513
  266POPX   D2A 3186  12.974  25.562   7.111 -0.0180  0.0593 -0.0168
  266POPX   C3A 3187  13.036  25.594   6.656  0.0090 -0.0191  0.0745
  266POPX   C4A 3188  13.154  25.834   6.203 -0.2851  0.1107 -0.0613
  266POPX   C1B 3189  13.504  25.042   7.699 -0.1613  0.2743  0.0300
  266POPX   C2B 3190  13.666  24.825   7.377 -0.4712  0.1569 -0.2150
  266POPX   C3B 3191  13.819  25.009   6.981  0.3629  0.0549 -0.0412
  266POPX   C4B 3192  13.854  24.905   6.498  0.1885 -0.3076 -0.3263
  267POPX   NC3 3193   3.519   7.951   8.357  0.1705 -0.0050  0.0560
  267POPX   PO4 3194   3.443   7.988   7.981  0.0995 -0.1109  0.0421
  267POPX   GL1 3195   3.309   7.801   7.633 -0.0174  0.0807  0.0565
  267POPX   GL2 3196   3.378   7.911   7.369 -0.0005  0.0496 -0.2208
  267POPX   C1A 3197   3.021   7.499   7.566 -0.2428 -0.0520 -0.1101
  267POPX   D2A 3198   2.838   7.026   7.434 -0.0209  0.0440  0.0726
  267POPX   C3A 3199   2.564   6.892   7.069 -0.0774 -0.0357  0.2254
  267POPX   C4A 3200   2.627   6.615   6.667 -0.2369  0.3653 -0.0777
  267POPX   C1B 3201   3.269   7.821   7.021  0.1314  0.1586  0.0444
  267POPX   C2B 3202   3.230   7.753   6.577 -0.2117  0.0034  0.0949
  267POPX   C3B 3203   3.285   7.591   6.170 -0.4685 -0.2895  0.0893
  267POPX   C4B 3204   3.268   7.521   5.695 -0.2042 -0.2509 -0.2287
  268POPX   NC3 3205  18.744  12.889   7.642 -0.2605 -0.1560  0.2863
  268POPX   PO4 3206  18.524  12.615   7.473 -0.0638  0.0802  0.1140
  268POPX   GL1 3207  18.394  12.585   7.061  0.1553 -0.2979 -0.1180
  268POPX   GL2 3208  18.120  12.605   7.135 -0.0421 -0.0362 -0.0272
  268POPX   C1A 3209  18.454  12.716   6.684 -0.1679 -0.1527 -0.1581
  268POPX   D2A 3210  18.658  13.005   6.350 -0.0208  0.3514 -0.0755
  268POPX   C3A 3211  18.652  13.020   5.869  0.4190 -0.1681 -0.2460
  268POPX   C4A 3212  19.096  12.921   5.713 -0.0002  0.1192  0.0992
  268POPX   C1B 3213  17.974  12.791   6.855  0.3302 -0.3142  0.0984
  268POPX   C2B 3214  17.904  12.758   6.457 -0.1082 -0.2902 -0.1634
  268POPX   C3B 3215  17.822  12.742   5.960 -0.0500 -0.1690  0.0291
  268POPX   C4B 3216  17.543  12.416   5.703 -0.1457 -0.1955 -0.1702
  269POPX   NC3 3217  23.540   1.954   7.530 -0.1388 -0.0949 -0.0443
  269POPX   PO4 3218  23.394   1.563   7.551  0.3468 -0.0174  0.0416
  269POPX   GL1 3219  23.376   1.336   7.195 -0.0303 -0.3974  0.0878
  269POPX   GL2 3220  23.628   1.516   7.084  0.3160 -0.1688  0.1947
  269POPX   C1A 3221  23.235   1.450   6.803 -0.0181 -0.2054  0.1776
  269POPX   D2A 3222  23.111   1.520   6.325 -0.1995  0.0894 -0.1565
  269POPX   C3A 3223  22.630   1.656   6.123 -0.1037 -0.1384  0.1984
  269POPX   C4A 3224  22.369   2.076   6.042 -0.3446  0.4866 -0.2589
  269POPX   C1B 3225  23.884   1.368   6.886  0.3180  0.0737  0.4066
  269POPX   C2B 3226  24.182   1.214   6.621 -0.2237 -0.0933  0.0057
  269POPX   C3B 3227  24.307   1.179   6.178  0.0259 -0.1068 -0.1871
  269POPX   C4B 3228  24.147   0.877   5.837  0.0470  0.0583  0.1254
  270POPX   NC3 3229   6.531  17.263   7.873  0.3678 -0.2085  0.1054
  270POPX   PO4 3230   6.342  17.088   7.526 -0.1366  0.2056  0.1221
  270POPX   GL1 3231   6.346  17.040   7.077  0.2774  0.0882 -0.6248
  270POPX   GL2 3232   6.437  17.383   7.106 -0.0502  0.2136 -0.0249
  270POPX   C1A 3233   6.098  16.924   6.674  0.2719 -0.1233  0.2081
  270POPX   D2A 3234   6.139  16.796   6.238 -0.3354  0.1673  0.1071
  270POPX   C3A 3235   6.241  16.735   5.757  0.0923 -0.5845  0.1848
  270POPX   C4A 3236   6.626  16.697   5.404 -0.1469  0.1481  0.0880
  270POPX   C1B 3237   6.256  17.441   6.760  0.2468  0.4144 -0.1157
  270POPX   C2B 3238   6.145  17.349   6.353 -0.2648 -0.1517 -0.1750
  270POPX   C3B 3239   6.208  17.276   5.935  0.0140 -0.2597 -0.1391
  270POPX   C4B 3240   5.951  17.173   5.577  0.0582  0.1719  0.0664
  271POPX   NC3 3241  22.314  10.411   7.452  0.0085 -0.1581  0.1047
  271POPX   PO4 3242  22.572  10.712   7.438 -0.0336 -0.2874 -0.1679
  271POPX   GL1 3243  22.562  10.719   7.022  0.2120  0.3510  0.4090
  271POPX   GL2 3244  22.309  10.544   6.994 -0.0647 -0.5416 -0.3133
  271POPX   C1A 3245  22.676  10.921   6.590 -0.1319 -0.2677  0.0584
  271POPX   D2A 3246  22.682  11.232   6.283 -0.1447  0.0460  0.3322
  271POPX   C3A 3247  22.980  11.452   6.048  0.1197  0.0698 -0.2676
  271POPX   C4A 3248  23.524  11.436   6.146 -0.0374  0.0355 -0.0451
  271POPX   C1B 3249  22.243  10.459   6.638 -0.3156 -0.2912 -0.4282
  271POPX   C2B 3250  22.314  10.418   6.261  0.4334  0.3082  0.0915
  271POPX   C3B 3251  22.459  10.297   5.823 -0.0183 -0.2655  0.1925
  271POPX   C4B 3252  22.430  10.487   5.368  0.1776 -0.1103 -0.1418
  272POPX   NC3 3253   9.344  22.628   7.704  0.1383 -0.1888  0.1690
  272POPX   PO4 3254   9.035  22.427   7.588 -0.1224  0.0628  0.0950
  272POPX   GL1 3255   9.087  22.161   7.260 -0.1719  0.0154  0.3185
  272POPX   GL2 3256   9.033  22.447   7.163  0.4272 -0.1451  0.2203
  272POPX   C1A 3257   9.196  21.974   6.879 -0.1091  0.1644  0.2045
  272POPX   D2A 3258   9.229  21.767   6.415 -0.3360  0.4924  0.0786
  272POPX   C3A 3259   9.055  21.942   6.004  0.0370  0.1283 -0.0844
  272POPX   C4A 3260   9.014  21.676   5.534 -0.1278 -0.0824  0.2204
  272POPX   C1B 3261   8.820  22.498   6.910 -0.2356  0.1808  0.0171
  272POPX   C2B 3262   8.764  22.661   6.563  0.1023 -0.2077 -0.0559
  272POPX   C3B 3263   8.831  22.809   6.119  0.2314 -0.0976 -0.1593
  272POPX   C4B 3264   8.990  23.034   5.702 -0.0971  0.0947 -0.1182
  273POPX   NC3 3265  23.556   9.708   7.595 -0.1866  0.1256 -0.0640
  273POPX   PO4 3266  23.838   9.413   7.538 -0.1034  0.0379 -0.0018
  273POPX   GL1 3267  23.897   9.215   7.165  0.2474  0.2959 -0.4300
  273POPX   GL2 3268  23.588   9.225   7.035  0.1275 -0.1714  0.0031
  273POPX   C1A 3269  24.118   9.026   6.870  0.2652  0.0217 -0.0055
  273POPX   D2A 3270  24.354   8.647   6.743  0.0025  0.1315  0.0398
  273POPX   C3A 3271  24.772   8.562   6.471  0.2061 -0.2318  0.2337
  273POPX   C4A 3272  25.147   8.390   6.182 -0.2224  0.0028 -0.0823
  273POPX   C1B 3273  23.682   9.085   6.716 -0.0714  0.3872 -0.0723
  273POPX   C2B 3274  23.900   8.789   6.485  0.0380 -0.3197 -0.1330
  273POPX   C3B 3275  24.239   8.605   6.205 -0.0996 -0.1435  0.0992
  273POPX   C4B 3276  24.607   8.463   6.004 -0.0413  0.0392 -0.0790
  274POPX   NC3 3277  27.458   8.424   7.857  0.0288  0.2973 -0.1817
  274POPX   PO4 3278  27.111   8.662   7.825  0.0930 -0.0237 -0.3466
  274POPX   GL1 3279  27.176   8.578   7.461  0.1352  0.1031  0.0530
  274POPX   GL2 3280  27.433   8.623   7.425 -0.5698  0.2595  0.0626
  274POPX   C1A 3281  26.900   8.324   7.170  0.1994  0.0821  0.0453
  274POPX   D2A 3282  26.796   8.510   6.724  0.2498 -0.1725  0.0004
  274POPX   C3A 3283  26.680   8.438   6.288  0.0876 -0.0929 -0.2795
  274POPX   C4A 3284  26.715   8.299   5.795 -0.0069 -0.1723 -0.1799
  274POPX   C1B 3285  27.547   8.715   7.136 -0.2123 -0.3012  0.2228
  274POPX   C2B 3286  27.209   8.750   6.931  0.1739 -0.1654 -0.0163
  274POPX   C3B 3287  27.086   8.860   6.490  0.2657 -0.0590  0.1182
  274POPX   C4B 3288  26.991   9.055   6.058 -0.4808 -0.2585  0.1612
  275POPX   NC3 3289   3.668  16.084   7.228 -0.1195 -0.1347 -0.0598
  275POPX   PO4 3290   3.569  16.413   7.492  0.3859 -0.0030  0.3007
  275POPX   GL1 3291   3.266  16.562   7.185  0.0863  0.0588  0.0226
  275POPX   GL2 3292   3.518  16.503   6.967 -0.1171 -0.2744 -0.3178
  275POPX   C1A 3293   3.023  16.862   6.977 -0.0831  0.0988  0.3610
  275POPX   D2A 3294   2.711  17.251   6.870  0.3391 -0.0257  0.1464
  275POPX   C3A 3295   2.773  17.580   6.513  0.1876  0.1623  0.1703
  275POPX   C4A 3296   2.773  17.905   6.081  0.0831  0.0566 -0.0953
  275POPX   C1B 3297   3.351  16.415   6.679 -0.1931  0.1001 -0.3874
  275POPX   C2B 3298   3.400  16.338   6.314 -0.2668  0.0258  0.1638
  275POPX   C3B 3299   3.603  16.188   5.902  0.3660  0.3546 -0.0514
  275POPX   C4B 3300   3.548  15.820   5.496 -0.2379 -0.2335  0.0408
  276POPX   NC3 3301   0.360   9.800   7.729 -0.4251 -0.0132  0.0194
  276POPX   PO4 3302   0.754   9.814   7.629  0.1841  0.2967 -0.2953
  276POPX   GL1 3303   0.944   9.808   7.269 -0.3554 -0.1273  0.1462
  276POPX   GL2 3304   0.821  10.066   7.155 -0.1240 -0.0700 -0.0563
  276POPX   C1A 3305   1.186   9.655   6.912  0.1512  0.0953 -0.0227
  276POPX   D2A 3306   1.354   9.523   6.458 -0.2528  0.0613 -0.3853
  276POPX   C3A 3307   1.176   9.084   6.341 -0.1191  0.0374  0.0730
  276POPX   C4A 3308   0.845   8.950   6.031 -0.0045  0.1118  0.0385
  276POPX   C1B 3309   0.817  10.009   6.814  0.0588 -0.0561 -0.1764
  276POPX   C2B 3310   1.004   9.911   6.430 -0.0149 -0.0862 -0.1579
  276POPX   C3B 3311   0.936   9.949   5.954 -0.2777 -0.0046 -0.3585
  276POPX   C4B 3312   0.789   9.722   5.514 -0.0080  0.1654 -0.1170
  277POPX   NC3 3313  26.929  22.342   7.857  0.5212 -0.0291  0.0248
  277POPX   PO4 3314  26.557  22.308   7.662 -0.1557 -0.0494  0.3086
  277POPX   GL1 3315  26.539  22.439   7.258 -0.1889 -0.2352 -0.2989
  277POPX   GL2 3316  26.573  22.261   7.086 -0.0197 -0.4603 -0.2805
  277POPX   C1A 3317  26.280  22.594   6.950 -0.0023 -0.0264 -0.0933
  277POPX   D2A 3318  26.307  22.590   6.466 -0.0257 -0.2759 -0.1317
  277POPX   C3A 3319  26.217  22.722   6.000 -0.1590  0.2155  0.2431
  277POPX   C4A 3320  26.083  22.793   5.608 -0.2123  0.2402 -0.0034
  277POPX   C1B 3321  26.504  22.206   6.713  0.3757 -0.4831 -0.0412
  277POPX   C2B 3322  26.493  22.155   6.303  0.0850  0.1829 -0.0946
  277POPX   C3B 3323  26.327  21.982   5.854 -0.2081 -0.0612  0.1022
  277POPX   C4B 3324  26.246  22.117   5.357  0.0599 -0.2157 -0.2544
  278POPX   NC3 3325   7.594  26.601   7.894 -0.0762 -0.1180 -0.3815
  278POPX   PO4 3326   7.413  26.584   7.532  0.1864 -0.0858 -0.2067
  278POPX   GL1 3327   7.401  26.331   7.280  0.2024  0.1662  0.3937
  278POPX   GL2 3328   7.147  26.419   7.190 -0.0079  0.5067  0.1373
  278POPX   C1A 3329   7.411  25.951   7.157 -0.4464  0.3289  0.1802
  278POPX   D2A 3330   7.653  25.528   7.122  0.0994 -0.2360 -0.0263
  278POPX   C3A 3331   7.684  25.441   6.658  0.2348  0.1908 -0.2588
  278POPX   C4A 3332   7.634  25.353   6.160 -0.3501 -0.0709  0.1303
  278POPX   C1B 3333   7.164  26.185   6.888  0.2255 -0.3541 -0.4239
  278POPX   C2B 3334   7.361  26.000   6.587  0.2412  0.2825  0.1249
  278POPX   C3B 3335   7.687  25.863   6.288  0.1521 -0.3283 -0.1038
  278POPX   C4B 3336   7.956  25.879   5.855  0.1104 -0.1694  0.1757
  279POPX   NC3 3337   6.628  19.187   7.958 -0.2211  0.1469 -0.0561
  279POPX   PO4 3338   7.018  19.131   7.939  0.0642 -0.1518 -0.1986
  279POPX   GL1 3339   7.082  18.957   7.608 -0.1070  0.3286  0.0794
  279POPX   GL2 3340   7.152  19.143   7.433 -0.0202 -0.3576  0.0776
  279POPX   C1A 3341   6.915  18.575   7.371 -0.0766 -0.0004  0.0904
  279POPX   D2A 3342   6.705  18.650   6.921 -0.0609  0.2709 -0.2169
  279POPX   C3A 3343   6.918  18.690   6.534  0.0448 -0.0820 -0.0530
  279POPX   C4A 3344   7.023  18.589   6.055  0.1656  0.2214 -0.0400
  279POPX   C1B 3345   6.929  19.152   7.163  0.1424 -0.0090  0.1913
  279POPX   C2B 3346   6.907  19.158   6.740  0.1066 -0.2172 -0.1274
  279POPX   C3B 3347   6.943  19.111   6.213 -0.1404 -0.2298  0.1748
  279POPX   C4B 3348   7.062  19.060   5.689  0.0642 -0.1266  0.0611
  280POPX   NC3 3349   6.706  15.490   7.469 -0.0578 -0.0271 -0.0530
  280POPX   PO4 3350   6.652  15.245   7.136  0.2251 -0.0839 -0.0840
  280POPX   GL1 3351   6.502  15.644   6.860  0.1617  0.2353 -0.0228
  280POPX   GL2 3352   6.755  15.703   6.845  0.3443  0.1065 -0.3169
  280POPX   C1A 3353   6.403  15.457   6.513  0.0712 -0.0017  0.4291
  280POPX   D2A 3354   6.401  15.510   6.057 -0.2497 -0.2305 -0.1049
  280POPX   C3A 3355   6.126  15.234   5.728 -0.1394 -0.0028  0.0000
  280POPX   C4A 3356   6.186  15.109   5.327 -0.2316 -0.0595 -0.0700
  280POPX   C1B 3357   6.811  15.767   6.482  0.2301 -0.1420  0.1227
  280POPX   C2B 3358   6.779  15.928   6.075  0.0159 -0.0636  0.3463
  280POPX   C3B 3359   6.785  15.848   5.564  0.0767  0.0543  0.3632
  280POPX   C4B 3360   6.866  16.221   5.188  0.0011 -0.0217  0.0266
  281POPX   NC3 3361  22.353  13.826   7.283  0.1257 -0.3414  0.0077
  281POPX   PO4 3362  22.660  14.090   7.440  0.1058 -0.0095 -0.0246
  281POPX   GL1 3363  23.044  14.170   7.190  0.3857  0.2744  0.0441
  281POPX   GL2 3364  22.924  14.467   7.182 -0.0795  0.2487 -0.0449
  281POPX   C1A 3365  23.168  13.971   6.838  0.3175 -0.1035 -0.0353
  281POPX   D2A 3366  23.252  13.808   6.372 -0.1500  0.1096  0.1297
  281POPX   C3A 3367  22.997  13.836   6.013 -0.1010 -0.5481 -0.1057
  281POPX   C4A 3368  22.638  13.628   5.724 -0.3051  0.1073 -0.1087
  281POPX   C1B 3369  23.100  14.783   7.043  0.2399 -0.0083 -0.0358
  281POPX   C2B 3370  23.431  14.931   6.701 -0.2736  0.3128 -0.0628
  281POPX   C3B 3371  23.577  14.649   6.378  0.1575 -0.0708  0.1079
  281POPX   C4B 3372  23.933  14.434   6.089  0.0700  0.0135 -0.2064
  282POPX   NC3 3373  21.827   8.097   7.514 -0.1438 -0.2283  0.1618
  282POPX   PO4 3374  21.933   8.504   7.358 -0.1534 -0.3504  0.1451
  282POPX   GL1 3375  21.702   8.470   7.052  0.5207  0.3805  0.0009
  282POPX   GL2 3376  21.711   8.169   7.064 -0.3445  0.0428  0.1548
  282POPX   C1A 3377  21.822   8.702   6.706  0.1673  0.1192  0.2637
  282POPX   D2A 3378  22.049   8.797   6.282 -0.1657 -0.0139  0.2797
  282POPX   C3A 3379  22.360   8.578   6.077 -0.2900 -0.1768  0.0716
  282POPX   C4A 3380  22.709   8.247   5.993 -0.1992  0.0452 -0.2521
  282POPX   C1B 3381  21.845   8.156   6.763  0.3964 -0.0834  0.0868
  282POPX   C2B 3382  22.018   8.210   6.422 -0.0843 -0.4155 -0.2653
  282POPX   C3B 3383  22.109   8.156   5.966  0.2126 -0.0661  0.1083
  282POPX   C4B 3384  21.924   8.369   5.570 -0.3639 -0.4443 -0.0875
  283POPX   NC3 3385  18.177   2.735   7.618 -0.1708  0.4294  0.0747
  283POPX   PO4 3386  17.953   2.834   7.302  0.0170 -0.2699  0.2391
  283POPX   GL1 3387  17.987   2.600   7.000  0.0715  0.0178 -0.1513
  283POPX   GL2 3388  17.832   2.821   6.896 -0.4041  0.0736  0.1054
  283POPX   C1A 3389  18.237   2.301   6.752  0.0584  0.0853 -0.0838
  283POPX   D2A 3390  18.644   1.994   6.497  0.2876  0.2195  0.2119
  283POPX   C3A 3391  18.669   2.096   6.024 -0.1479 -0.1664  0.1823
  283POPX   C4A 3392  18.833   2.103   5.624 -0.2026  0.1097 -0.1384
  283POPX   C1B 3393  17.823   2.514   6.608  0.1780  0.0177 -0.0910
  283POPX   C2B 3394  17.894   2.209   6.352 -0.1045  0.3955 -0.0373
  283POPX   C3B 3395  18.182   1.850   6.217 -0.1176  0.2015 -0.1223
  283POPX   C4B 3396  18.475   1.589   5.911  0.1163 -0.0814  0.3492
  284POPX   NC3 3397  26.705  21.003   7.960 -0.0431  0.0032  0.1754
  284POPX   PO4 3398  26.938  20.967   7.593  0.1142 -0.1893 -0.0901
  284POPX   GL1 3399  26.706  21.007   7.276 -0.1588  0.1234 -0.0941
  284POPX   GL2 3400  26.878  20.756   7.161  0.0837 -0.0425 -0.1138
  284POPX   C1A 3401  26.459  21.266   6.993 -0.2234  0.1132 -0.3490
  284POPX   D2A 3402  26.380  21.386   6.473  0.0769  0.0004  0.0234
  284POPX   C3A 3403  26.378  21.382   5.986 -0.2173  0.1298 -0.1488
  284POPX   C4A 3404  26.282  21.023   5.751 -0.2789  0.0426 -0.0256
  284POPX   C1B 3405  26.732  20.832   6.812  0.0280 -0.0583  0.1999
  284POPX   C2B 3406  26.599  20.942   6.438 -0.0788 -0.2562  0.0394
  284POPX   C3B 3407  26.710  20.893   5.989  0.0656 -0.1278  0.1121
  284POPX   C4B 3408  26.721  20.856   5.486 -0.1308 -0.1682 -0.1309
  285POPX   NC3 3409   5.943  16.216   7.091 -0.1426 -0.1506  0.0323
  285POPX   PO4 3410   5.581  16.045   7.049 -0.2972  0.1129 -0.0315
  285POPX   GL1 3411   5.479  15.657   6.911 -0.0711 -0.3438  0.0452
  285POPX   GL2 3412   5.189  15.761   6.982  0.1270 -0.0194 -0.2427
  285POPX   C1A 3413   5.330  15.530   6.545 -0.2320  0.1012 -0.0476
  285POPX   D2A 3414   4.925  15.200   6.352 -0.2421  0.0914 -0.2128
  285POPX   C3A 3415   5.039  14.752   6.158 -0.1094  0.4827 -0.1661
  285POPX   C4A 3416   4.896  14.389   5.794  0.2952  0.2974  0.0921
  285POPX   C1B 3417   5.111  15.976   6.723  0.0556 -0.2187 -0.1523
  285POPX   C2B 3418   5.242  16.025   6.327 -0.0440  0.1012 -0.0253
  285POPX   C3B 3419   5.292  16.021   5.828 -0.1659  0.2138 -0.0654
  285POPX   C4B 3420   5.164  16.082   5.338  0.0244  0.1151  0.1286
  286POPX   NC3 3421   8.581   1.133   7.148  0.3992 -0.0154  0.0730
  286POPX   PO4 3422   8.828   1.360   7.056 -0.0862 -0.2088 -0.2812
  286POPX   GL1 3423   8.988   1.545   6.739  0.0407  0.2742  0.2232
  286POPX   GL2 3424   9.248   1.737   6.776  0.3589 -0.4276  0.0740
  286POPX   C1A 3425   8.953   1.594   6.347 -0.2240  0.0883  0.2658
  286POPX   D2A 3426   9.263   1.695   5.929  0.3540 -0.0111  0.2594
  286POPX   C3A 3427   9.333   1.553   5.531 -0.0175  0.0428 -0.2097
  286POPX   C4A 3428   9.472   1.201   5.230 -0.0411  0.1630  0.3665
  286POPX   C1B 3429   9.514   1.694   6.494  0.0572 -0.0974 -0.0678
  286POPX   C2B 3430   9.699   1.804   6.128  0.0346 -0.4266 -0.1634
  286POPX   C3B 3431   9.817   1.829   5.715 -0.2976 -0.1713 -0.1391
  286POPX   C4B 3432   9.786   1.730   5.213  0.0992 -0.0204 -0.1444
  287POPX   NC3 3433  16.559  17.836   7.819  0.2939 -0.0603  0.0363
  287POPX   PO4 3434  16.915  17.676   7.873 -0.1149 -0.0535 -0.0381
  287POPX   GL1 3435  17.299  17.810   7.751 -0.0103 -0.0353  0.2301
  287POPX   GL2 3436  17.338  17.590   7.614  0.1459 -0.0807  0.4264
  287POPX   C1A 3437  17.511  17.980   7.415  0.5446 -0.0512 -0.1015
  287POPX   D2A 3438  17.619  17.767   6.941  0.4144  0.2641  0.0796
  287POPX   C3A 3439  17.386  17.839   6.506  0.0522 -0.0450  0.3983
  287POPX   C4A 3440  17.386  17.920   6.043 -0.1199 -0.0677  0.1161
  287POPX   C1B 3441  17.300  17.557   7.269 -0.3696 -0.1176  0.4594
  287POPX   C2B 3442  17.097  17.726   6.930  0.0726  0.2984 -0.1873
  287POPX   C3B 3443  16.947  17.616   6.518  0.1989 -0.0430 -0.1143
  287POPX   C4B 3444  16.689  17.510   6.094 -0.0468  0.4676 -0.1843
  288POPX   NC3 3445  18.213  12.228   7.370  0.0727 -0.0270  0.0656
  288POPX   PO4 3446  18.374  12.062   7.039 -0.0152  0.0836 -0.1069
  288POPX   GL1 3447  18.182  12.036   6.741  0.0208 -0.2730 -0.0694
  288POPX   GL2 3448  18.148  12.364   6.789 -0.1105  0.2595  0.1926
  288POPX   C1A 3449  18.012  11.759   6.451  0.1041 -0.2690  0.0373
  288POPX   D2A 3450  17.535  11.585   6.551  0.0095  0.1004  0.0568
  288POPX   C3A 3451  17.279  11.566   6.123  0.0757  0.3096  0.1317
  288POPX   C4A 3452  17.255  11.154   5.809 -0.0656  0.0319  0.1163
  288POPX   C1B 3453  18.021  12.320   6.427  0.0156  0.1054 -0.4322
  288POPX   C2B 3454  17.983  12.261   6.016 -0.2703  0.1714  0.1966
  288POPX   C3B 3455  17.999  12.097   5.591  0.1735  0.0647  0.0428
  288POPX   C4B 3456  18.147  12.088   5.161 -0.0623  0.2343  0.5521
  289POPX   NC3 3457   4.301   0.409   8.344  0.4484  0.0141  0.2737
  289POPX   PO4 3458   3.990   0.493   8.109  0.0652  0.1269 -0.1793
  289POPX   GL1 3459   3.980   0.317   7.656 -0.0451  0.2094 -0.1750
  289POPX   GL2 3460   3.750   0.535   7.656 -0.1204  0.1569  0.0314
  289POPX   C1A 3461   4.095   0.296   7.196 -0.4040 -0.2342 -0.1694
  289POPX   D2A 3462   4.279   0.347   6.733 -0.0600 -0.1294  0.5940
  289POPX   C3A 3463   4.196   0.364   6.202 -0.0842  0.1372  0.0331
  289POPX   C4A 3464   3.932   0.360   5.821  0.1778  0.0208 -0.0487
  289POPX   C1B 3465   3.832   0.696   7.334  0.1318  0.1003  0.0021
  289POPX   C2B 3466   4.003   0.715   6.948 -0.0469 -0.2104  0.0027
  289POPX   C3B 3467   4.121   0.825   6.482 -0.0983  0.1928  0.0353
  289POPX   C4B 3468   3.838   0.998   6.121 -0.2268 -0.1947 -0.2487
  290POPX   NC3 3469   1.734  21.027   7.943  0.0097 -0.4642  0.2910
  290POPX   PO4 3470   1.567  21.056   7.589  0.0213  0.2127 -0.1452
  290POPX   GL1 3471   1.597  21.399   7.296 -0.2375  0.0128 -0.0300
  290POPX   GL2 3472   1.398  21.219   7.124  0.1466  0.3517 -0.0471
  290POPX   C1A 3473   1.958  21.608   7.115 -0.2621 -0.0914  0.1388
  290POPX   D2A 3474   2.128  21.492   6.734 -0.3532  0.0758  0.1308
  290POPX   C3A 3475   2.047  21.344   6.361 -0.1315 -0.0627  0.0257
  290POPX   C4A 3476   1.933  21.288   5.866  0.2272  0.1248  0.1736
  290POPX   C1B 3477   1.288  21.215   6.731  0.1606 -0.1474 -0.2266
  290POPX   C2B 3478   1.262  21.206   6.300 -0.0811 -0.1409 -0.1763
  290POPX   C3B 3479   1.104  21.217   5.824 -0.2023  0.0099 -0.1472
  290POPX   C4B 3480   1.164  21.018   5.455  0.0298 -0.1347 -0.0392
  291POPX   NC3 3481  11.352  23.932   7.910  0.0060  0.3901 -0.2679
  291POPX   PO4 3482  11.481  23.630   7.692  0.0345 -0.5537  0.2607
  291POPX   GL1 3483  11.411  23.674   7.247 -0.1573  0.2550 -0.1104
  291POPX   GL2 3484  11.582  23.495   7.238  0.1399  0.1983  0.1411
  291POPX   C1A 3485  11.072  23.706   6.970 -0.2762  0.0427 -0.2919
  291POPX   D2A 3486  10.794  23.394   6.645  0.0527 -0.0697 -0.0948
  291POPX   C3A 3487  11.067  23.250   6.221 -0.1490 -0.1687  0.2356
  291POPX   C4A 3488  11.560  23.324   6.163  0.3784  0.0484 -0.3969
  291POPX   C1B 3489  11.677  23.524   6.882 -0.1919 -0.0166 -0.0078
  291POPX   C2B 3490  11.817  23.535   6.517  0.0985  0.1723  0.3872
  291POPX   C3B 3491  11.899  23.710   6.037  0.1973  0.1164  0.1552
  291POPX   C4B 3492  12.020  23.579   5.575  0.1375 -0.1548 -0.1834
  292POPX   NC3 3493   1.528  19.344   7.829 -0.5005  0.1462 -0.1191
  292POPX   PO4 3494   1.222  19.415   8.037 -0.2250 -0.1289  0.0289
  292POPX   GL1 3495   0.922  19.471   7.806 -0.2270 -0.2560 -0.2048
  292POPX   GL2 3496   0.839  19.750   7.812  0.0757  0.0087 -0.2071
  292POPX   C1A 3497   0.921  19.394   7.367  0.0574 -0.0661  0.2997
  292POPX   D2A 3498   1.062  19.501   6.876  0.0845  0.0862  0.2443
  292POPX   C3A 3499   0.882  19.161   6.572 -0.2080  0.1474 -0.0678
  292POPX   C4A 3500   0.829  18.814   6.302  0.0032 -0.0661 -0.4951
  292POPX   C1B 3501   0.566  19.802   7.530  0.4801 -0.3313 -0.2370
  292POPX   C2B 3502   0.455  19.857   7.138 -0.1715 -0.1929 -0.3651
  292POPX   C3B 3503   0.222  19.859   6.743  0.3064  0.3538 -0.1828
  292POPX   C4B 3504  -0.088  20.216   6.586  0.3383 -0.1686  0.0360
  293POPX   NC3 3505  17.590  23.743   8.169  0.1970 -0.1206 -0.0876
  293POPX   PO4 3506  17.773  23.675   7.826 -0.1005 -0.1898  0.0381
  293POPX   GL1 3507  17.652  23.785   7.521  0.1326  0.1258  0.0550
  293POPX   GL2 3508  17.398  23.765   7.457  0.1410 -0.1774  0.0260
  293POPX   C1A 3509  17.722  23.986   7.137  0.0965  0.0232  0.0396
  293POPX   D2A 3510  17.513  24.329   6.802 -0.0768 -0.1378 -0.0176
  293POPX   C3A 3511  17.404  24.422   6.389  0.0808 -0.0987 -0.1592
  293POPX   C4A 3512  17.336  24.575   5.910 -0.1467  0.0451  0.0760
  293POPX   C1B 3513  17.292  23.949   7.118 -0.3453  0.0318 -0.1766
  293POPX   C2B 3514  17.102  24.076   6.767  0.1427 -0.0145  0.3247
  293POPX   C3B 3515  16.936  24.139   6.341  0.1138 -0.0179  0.1620
  293POPX   C4B 3516  16.863  24.291   5.823 -0.2390  0.0345 -0.2179
  294POPX   NC3 3517  24.220   2.965   7.628 -0.0058 -0.1810  0.0288
  294POPX   PO4 3518  23.874   3.165   7.603  0.1354  0.2021 -0.0557
  294POPX   GL1 3519  23.633   3.088   7.219  0.1078  0.3714 -0.0228
  294POPX   GL2 3520  23.830   2.840   7.184 -0.0811 -0.0921 -0.0598
  294POPX   C1A 3521  23.402   3.350   6.963  0.0645 -0.1115 -0.0029
  294POPX   D2A 3522  23.404   3.427   6.466 -0.1373 -0.0279 -0.3112
  294POPX   C3A 3523  23.547   3.222   6.042 -0.1769  0.1758 -0.2805
  294POPX   C4A 3524  23.929   2.946   5.837  0.0099 -0.3519  0.1757
  294POPX   C1B 3525  24.097   2.880   6.903 -0.1590  0.0600  0.1366
  294POPX   C2B 3526  24.365   2.654   6.670  0.1507  0.0904  0.3112
  294POPX   C3B 3527  24.706   2.535   6.349 -0.3687 -0.3119  0.2516
  294POPX   C4B 3528  24.917   2.301   5.963  0.2624  0.3252 -0.0013
  295POPX   NC3 3529   1.703   3.560   7.846 -0.2376 -0.1445 -0.4154
  295POPX   PO4 3530   1.539   3.896   7.617  0.0575  0.1058  0.0326
  295POPX   GL1 3531   1.425   3.833   7.277 -0.0606 -0.4541 -0.5700
  295POPX   GL2 3532   1.489   3.596   7.113 -0.2852 -0.2289  0.3456
  295POPX   C1A 3533   1.422   4.031   6.953  0.3411 -0.2399 -0.1592
  295POPX   D2A 3534   1.346   4.029   6.467  0.2205 -0.1119 -0.2651
  295POPX   C3A 3535   1.713   4.104   6.164 -0.1270 -0.0744  0.0739
  295POPX   C4A 3536   1.871   4.410   5.772 -0.2503 -0.1743 -0.2777
  295POPX   C1B 3537   1.666   3.507   6.742 -0.3648  0.0342  0.1694
  295POPX   C2B 3538   1.624   3.539   6.329 -0.1407  0.1955 -0.0344
  295POPX   C3B 3539   1.337   3.607   6.012  0.1790  0.1525 -0.0171
  295POPX   C4B 3540   1.223   3.582   5.630  0.0607  0.1128  0.1302
  296POPX   NC3 3541   5.292  20.775   8.093 -0.0120 -0.0552  0.1280
  296POPX   PO4 3542   5.181  20.791   7.710 -0.0233  0.0718 -0.2142
  296POPX   GL1 3543   4.968  20.699   7.370  0.2212  0.1658 -0.5566
  296POPX   GL2 3544   4.939  20.432   7.488  0.1115 -0.2386  0.1454
  296POPX   C1A 3545   4.853  20.786   6.965  0.4511 -0.0808  0.0510
  296POPX   D2A 3546   4.981  20.718   6.529 -0.1055  0.0741  0.4766
  296POPX   C3A 3547   5.004  21.009   6.072 -0.0259  0.4013  0.3313
  296POPX   C4A 3548   5.213  21.413   5.809  0.4023  0.1538 -0.2987
  296POPX   C1B 3549   4.797  20.223   7.255  0.1028 -0.2611  0.1522
  296POPX   C2B 3550   4.703  20.173   6.847 -0.2683 -0.0857  0.1579
  296POPX   C3B 3551   4.852  19.967   6.426 -0.1588 -0.1778 -0.1130
  296POPX   C4B 3552   4.891  19.740   5.968  0.0562  0.0017 -0.1032
  297POPX   NC3 3553  23.971   3.635   7.764 -0.0179 -0.3675 -0.2358
  297POPX   PO4 3554  24.257   3.510   7.517  0.1736  0.1889  0.0425
  297POPX   GL1 3555  24.099   3.217   7.212 -0.0810 -0.0907 -0.0149
  297POPX   GL2 3556  24.390   3.297   7.166 -0.0886  0.1344  0.0905
  297POPX   C1A 3557  23.891   3.328   6.844 -0.0322  0.3361  0.0646
  297POPX   D2A 3558  23.843   3.138   6.409 -0.1854  0.4351  0.1397
  297POPX   C3A 3559  24.110   3.420   6.066  0.0103 -0.2802 -0.0984
  297POPX   C4A 3560  24.498   3.636   5.779  0.1735  0.0337 -0.0649
  297POPX   C1B 3561  24.446   3.215   6.856  0.0317  0.0531 -0.0108
  297POPX   C2B 3562  24.417   3.201   6.462  0.1120  0.0382 -0.0500
  297POPX   C3B 3563  24.388   2.995   6.001 -0.3604  0.2634  0.2884
  297POPX   C4B 3564  24.689   2.753   5.739  0.1849  0.0705  0.3968
  298POPX   NC3 3565  13.130  27.356   8.129 -0.0376  0.0505  0.1232
  298POPX   PO4 3566  13.441  27.312   7.949 -0.2435 -0.1748  0.1667
  298POPX   GL1 3567  13.393  27.571   7.645 -0.4473  0.1401 -0.1157
  298POPX   GL2 3568  13.506  27.382   7.479 -0.2321 -0.2919  0.0301
  298POPX   C1A 3569  13.243  27.994   7.508  0.2902 -0.0898 -0.1371
  298POPX   D2A 3570  13.206  28.339   7.193 -0.3750  0.1791 -0.0183
  298POPX   C3A 3571  13.193  28.342   6.728 -0.2154 -0.1590  0.0797
  298POPX   C4A 3572  13.431  28.331   6.330 -0.2120  0.5445  0.1050
  298POPX   C1B 3573  13.406  27.384   7.134 -0.1782  0.0486 -0.1595
  298POPX   C2B 3574  13.184  27.435   6.765 -0.0304 -0.2567  0.1321
  298POPX   C3B 3575  12.960  27.377   6.340 -0.2835  0.0659  0.0209
  298POPX   C4B 3576  12.613  27.226   5.979  0.1510 -0.1321  0.2087
  299POPX   NC3 3577  25.669  16.330   7.707 -0.0052  0.1712 -0.0439
  299POPX   PO4 3578  25.334  16.141   7.569  0.1956 -0.0124  0.2550
  299POPX   GL1 3579  25.261  16.260   7.236 -0.3437  0.2140  0.0472
  299POPX   GL2 3580  25.470  16.127   7.011 -0.0412 -0.3347  0.0519
  299POPX   C1A 3581  24.912  16.407   7.060  0.1280 -0.3698  0.1748
  299POPX   D2A 3582  24.548  16.354   6.741 -0.1094 -0.1886  0.2150
  299POPX   C3A 3583  24.410  15.993   6.453  0.0217  0.0614  0.1671
  299POPX   C4A 3584  24.424  16.079   5.955 -0.0250  0.0825  0.3390
  299POPX   C1B 3585  25.410  15.971   6.627 -0.3119 -0.4159 -0.0098
  299POPX   C2B 3586  25.376  15.774   6.239 -0.2676  0.1341 -0.2257
  299POPX   C3B 3587  25.429  15.693   5.746  0.0408 -0.0064 -0.5782
  299POPX   C4B 3588  25.529  15.691   5.259  0.2880 -0.2304 -0.0711
  300POPX   NC3 3589  16.421  15.283   7.707 -0.3930  0.1308  0.1124
  300POPX   PO4 3590  16.073  15.031   7.633  0.0574 -0.1792  0.0157
  300POPX   GL1 3591  15.954  15.085   7.241 -0.1698 -0.0887 -0.0172
  300POPX   GL2 3592  16.154  14.882   7.138  0.0102  0.3479  0.0042
  300POPX   C1A 3593  16.101  15.458   7.027 -0.1643 -0.1116  0.3261
  300POPX   D2A 3594  16.266  15.908   6.943  0.2063 -0.0084  0.2446
  300POPX   C3A 3595  16.383  16.269   6.791  0.2118 -0.2094  0.1843
  300POPX   C4A 3596  16.598  16.473   6.392  0.1382 -0.0296 -0.0750
  300POPX   C1B 3597  16.222  14.994   6.812 -0.1695  0.2156 -0.0867
  300POPX   C2B 3598  16.176  15.207   6.443  0.0064 -0.1377 -0.1003
  300POPX   C3B 3599  16.033  15.637   6.583 -0.2380 -0.2927 -0.4013
  300POPX   C4B 3600  15.939  16.146   6.590  0.0015  0.3133 -0.0465
  301POPX   NC3 3601  17.625  18.974   7.995  0.1645  0.4244  0.1081
  301POPX   PO4 3602  17.941  18.802   7.864  0.0776  0.0460  0.1287
  301POPX   GL1 3603  17.791  18.860   7.481  0.1676  0.1095 -0.0444
  301POPX   GL2 3604  17.609  19.104   7.558  0.1518 -0.1658  0.0033
  301POPX   C1A 3605  17.606  18.826   7.065 -0.2622 -0.1825 -0.0376
  301POPX   D2A 3606  17.449  18.837   6.589  0.0558 -0.0769 -0.2439
  301POPX   C3A 3607  17.462  18.718   6.138 -0.1171  0.1146  0.3481
  301POPX   C4A 3608  17.411  18.840   5.659 -0.1289 -0.0559  0.1101
  301POPX   C1B 3609  17.501  19.278   7.221  0.2573 -0.0189  0.4304
  301POPX   C2B 3610  17.464  19.255   6.804 -0.0907 -0.1466  0.1251
  301POPX   C3B 3611  17.311  19.262   6.346  0.3106  0.1646 -0.1785
  301POPX   C4B 3612  17.614  19.221   5.986 -0.1352  0.1974  0.1101
  302POPX   NC3 3613   8.625   1.819   6.769 -0.0946  0.2002 -0.1639
  302POPX   PO4 3614   8.296   1.949   6.948 -0.2242 -0.1306 -0.0254
  302POPX   GL1 3615   8.139   1.996   6.613 -0.0972  0.2970  0.1898
  302POPX   GL2 3616   8.290   1.731   6.497  0.3857  0.5284  0.2836
  302POPX   C1A 3617   7.834   2.217   6.314 -0.1757 -0.1722 -0.0072
  302POPX   D2A 3618   7.690   2.499   5.879 -0.1608  0.2188  0.0479
  302POPX   C3A 3619   7.969   2.557   5.514  0.3855 -0.2633  0.0474
  302POPX   C4A 3620   8.035   2.182   5.089 -0.2406  0.0849  0.0969
  302POPX   C1B 3621   8.534   1.686   6.200 -0.1161  0.0150 -0.1430
  302POPX   C2B 3622   8.765   1.549   5.897  0.2153 -0.1354  0.0135
  302POPX   C3B 3623   8.866   1.832   5.528  0.0422 -0.0855 -0.0034
  302POPX   C4B 3624   8.989   2.227   5.426 -0.2310 -0.0039  0.1610
  303POPX   NC3 3625  19.152   7.540   7.332  0.0947  0.0775 -0.1220
  303POPX   PO4 3626  18.829   7.755   7.401 -0.0557  0.2150 -0.2200
  303POPX   GL1 3627  18.907   7.748   6.993 -0.0317  0.1728 -0.1139
  303POPX   GL2 3628  18.857   7.486   6.922  0.0510 -0.2258  0.5372
  303POPX   C1A 3629  19.106   8.054   6.792  0.3335 -0.2214 -0.4484
  303POPX   D2A 3630  19.365   8.457   6.874  0.0808  0.1169 -0.0553
  303POPX   C3A 3631  19.548   8.504   6.497  0.0168 -0.0441  0.1570
  303POPX   C4A 3632  19.658   8.421   5.967 -0.2097  0.0118  0.3926
  303POPX   C1B 3633  18.766   7.413   6.586 -0.0658 -0.2878  0.3173
  303POPX   C2B 3634  18.723   7.405   6.179 -0.0580  0.2432  0.0761
  303POPX   C3B 3635  18.450   7.392   5.805 -0.2810 -0.1333  0.2403
  303POPX   C4B 3636  18.329   7.140   5.397 -0.2526 -0.2586  0.1112
  304POPX   NC3 3637  23.493  27.511   7.917  0.0614  0.1071 -0.1993
  304POPX   PO4 3638  23.843  27.451   7.715  0.0705 -0.2093  0.2065
  304POPX   GL1 3639  23.909  27.504   7.313  0.4350 -0.0832 -0.4513
  304POPX   GL2 3640  23.844  27.835   7.245  0.3261 -0.2077  0.1177
  304POPX   C1A 3641  24.150  27.610   6.931 -0.3781 -0.1006  0.1243
  304POPX   D2A 3642  24.272  27.816   6.472 -0.2051  0.0490 -0.4266
  304POPX   C3A 3643  24.177  27.811   6.038 -0.0083 -0.1176 -0.1696
  304POPX   C4A 3644  24.021  27.971   5.639 -0.0661  0.0628  0.0485
  304POPX   C1B 3645  23.772  27.897   6.856 -0.0802 -0.1106  0.1384
  304POPX   C2B 3646  23.816  28.071   6.520  0.1950 -0.1286 -0.1345
  304POPX   C3B 3647  23.935  28.361   6.191  0.2295  0.1907 -0.1651
  304POPX   C4B 3648  23.529  28.393   5.808  0.2074  0.1248  0.1176
  305POPX   NC3 3649  19.803  15.476   6.930  0.2236  0.1140  0.1329
  305POPX   PO4 3650  20.171  15.651   6.940 -0.2943  0.2617 -0.0163
  305POPX   GL1 3651  20.446  15.822   6.688  0.2790 -0.1515 -0.3365
  305POPX   GL2 3652  20.241  16.010   6.612 -0.1724 -0.0891  0.4124
  305POPX   C1A 3653  20.545  15.770   6.297 -0.2523 -0.1363 -0.1464
  305POPX   D2A 3654  20.964  15.789   5.979  0.1928  0.0358 -0.0825
  305POPX   C3A 3655  21.445  15.814   5.986  0.0198  0.1307 -0.2856
  305POPX   C4A 3656  21.697  15.731   5.641 -0.0127 -0.3912 -0.1700
  305POPX   C1B 3657  20.188  16.054   6.318  0.0110 -0.2255  0.2214
  305POPX   C2B 3658  20.008  16.322   6.020 -0.2091 -0.3607  0.1341
  305POPX   C3B 3659  19.973  16.007   5.740  0.1165  0.1388  0.0154
  305POPX   C4B 3660  19.914  15.678   5.465  0.2116 -0.2488  0.2672
  306POPX   NC3 3661  27.266  10.415   7.903 -0.1198 -0.2724 -0.0069
  306POPX   PO4 3662  27.186  10.045   7.823 -0.1297  0.3999  0.2000
  306POPX   GL1 3663  26.990   9.958   7.455  0.0536 -0.0810  0.3678
  306POPX   GL2 3664  26.822  10.137   7.369  0.1486  0.0577 -0.1636
  306POPX   C1A 3665  27.151   9.767   7.179 -0.1586 -0.0859 -0.1481
  306POPX   D2A 3666  27.214   9.881   6.715 -0.0610 -0.1543 -0.0363
  306POPX   C3A 3667  27.239  10.047   6.289 -0.1483 -0.0304  0.2539
  306POPX   C4A 3668  26.974   9.992   5.894  0.0519 -0.2327 -0.0421
  306POPX   C1B 3669  26.923  10.285   7.052 -0.2802 -0.0931  0.0273
  306POPX   C2B 3670  26.828  10.329   6.658 -0.4510  0.3490  0.0319
  306POPX   C3B 3671  26.827  10.305   6.207 -0.1037  0.2081 -0.2785
  306POPX   C4B 3672  26.870  10.434   5.697 -0.1391  0.0468 -0.1092
  307POPX   NC3 3673   3.769   9.947   7.556  0.0880 -0.0133 -0.2000
  307POPX   PO4 3674   3.955   9.674   7.469  0.3667 -0.1681 -0.0642
  307POPX   GL1 3675   3.984   9.877   7.054 -0.5257 -0.0789  0.1566
  307POPX   GL2 3676   3.835   9.609   7.033  0.1926  0.1650  0.0576
  307POPX   C1A 3677   3.967   9.912   6.593  0.0994 -0.0907 -0.1551
  307POPX   D2A 3678   4.008   9.852   6.159  0.0776  0.1115 -0.3265
  307POPX   C3A 3679   4.170   9.758   5.727  0.2125  0.1634  0.1383
  307POPX   C4A 3680   4.103   9.533   5.283  0.0683 -0.1008 -0.1050
  307POPX   C1B 3681   3.609   9.659   6.767  0.1923  0.2994  0.0962
  307POPX   C2B 3682   3.383   9.755   6.440  0.1648  0.0267  0.0952
  307POPX   C3B 3683   3.550   9.832   5.995 -0.0234 -0.0054 -0.1954
  307POPX   C4B 3684   3.405   9.959   5.539 -0.1173 -0.3731 -0.0047
  308POPX   NC3 3685  14.673   6.020   7.826  0.1183 -0.1123 -0.0702
  308POPX   PO4 3686  14.464   6.265   7.556  0.0106  0.2943 -0.3357
  308POPX   GL1 3687  14.419   6.157   7.123 -0.0909  0.2917  0.2818
  308POPX   GL2 3688  14.378   5.904   7.281  0.1280  0.1622  0.2114
  308POPX   C1A 3689  14.279   5.943   6.727 -0.3554 -0.1340  0.1551
  308POPX   D2A 3690  14.119   5.805   6.258  0.3183  0.2724 -0.1421
  308POPX   C3A 3691  13.791   5.561   6.039 -0.0151 -0.1779  0.0818
  308POPX   C4A 3692  13.452   5.596   5.614 -0.0265  0.2192  0.1078
  308POPX   C1B 3693  14.511   5.649   7.021 -0.1413  0.1319  0.0097
  308POPX   C2B 3694  14.519   5.514   6.604 -0.0279 -0.0295 -0.1401
  308POPX   C3B 3695  14.588   5.581   6.168 -0.0771 -0.2056  0.0500
  308POPX   C4B 3696  14.678   5.811   5.703 -0.1686 -0.0379 -0.0184
  309POPX   NC3 3697   6.941  10.866   7.387  0.0582  0.1690 -0.4461
  309POPX   PO4 3698   7.130  10.505   7.528 -0.1393 -0.2514  0.0970
  309POPX   GL1 3699   7.251  10.217   7.248  0.1595  0.0213 -0.1148
  309POPX   GL2 3700   7.478  10.335   7.223  0.6019  0.4341 -0.1514
  309POPX   C1A 3701   6.927  10.080   7.031  0.0242 -0.3076  0.0471
  309POPX   D2A 3702   6.629   9.922   6.750  0.1098  0.1371 -0.0476
  309POPX   C3A 3703   6.648   9.591   6.421  0.2096  0.3415 -0.1368
  309POPX   C4A 3704   6.494   9.378   6.013  0.0137 -0.1117  0.0784
  309POPX   C1B 3705   7.664  10.345   6.899 -0.1359 -0.3723  0.0996
  309POPX   C2B 3706   7.602  10.244   6.511 -0.3349  0.1649  0.0118
  309POPX   C3B 3707   7.406   9.958   6.110  0.0402 -0.1583  0.1031
  309POPX   C4B 3708   7.105  10.190   5.772  0.0673 -0.4861 -0.5535
  310POPX   NC3 3709   1.643   2.263   7.340  0.0007 -0.2570 -0.4215
  310POPX   PO4 3710   1.315   2.220   7.529 -0.1020 -0.0047  0.1151
  310POPX   GL1 3711   1.181   2.377   7.132  0.0246  0.1442  0.0810
  310POPX   GL2 3712   1.352   2.557   7.180  0.1836 -0.0068 -0.1768
  310POPX   C1A 3713   0.851   2.262   6.706 -0.2226  0.3606 -0.1290
  310POPX   D2A 3714   0.855   1.975   6.288 -0.0482 -0.0153  0.1467
  310POPX   C3A 3715   0.900   1.831   5.875 -0.0684 -0.2308 -0.1270
  310POPX   C4A 3716   0.832   1.833   5.423 -0.5149 -0.2529 -0.0243
  310POPX   C1B 3717   1.637   2.501   6.907  0.2427  0.4351 -0.1206
  310POPX   C2B 3718   1.822   2.512   6.510  0.0694 -0.1686 -0.0299
  310POPX   C3B 3719   1.864   2.624   6.044  0.2049 -0.0374 -0.4306
  310POPX   C4B 3720   2.016   2.387   5.675  0.2115  0.0007 -0.0079
  311POPX   NC3 3721  21.163  24.477   7.710  0.1975  0.0171  0.2655
  311POPX   PO4 3722  21.367  24.182   7.583  0.1948 -0.3600  0.0457
  311POPX   GL1 3723  21.124  24.403   7.271  0.1183  0.2231  0.1853
  311POPX   GL2 3724  20.911  24.333   7.231  0.1211 -0.1285  0.0112
  311POPX   C1A 3725  21.055  24.687   6.928  0.0719  0.1609  0.0486
  311POPX   D2A 3726  21.060  24.535   6.436 -0.0727  0.1824 -0.1683
  311POPX   C3A 3727  20.976  24.452   6.001  0.3691  0.0667  0.2647
  311POPX   C4A 3728  20.614  24.443   5.689 -0.0205  0.1240  0.3547
  311POPX   C1B 3729  20.841  24.194   6.891 -0.2806  0.1548 -0.1461
  311POPX   C2B 3730  20.872  24.034   6.501 -0.0414 -0.0151 -0.1091
  311POPX   C3B 3731  20.788  24.019   5.970 -0.1241  0.2235  0.0286
  311POPX   C4B 3732  20.810  24.013   5.538  0.1220  0.1692  0.0476
  312POPX   NC3 3733  19.541  22.578   8.066 -0.2700  0.1711  0.1348
  312POPX   PO4 3734  19.395  22.217   8.153 -0.0024  0.3310 -0.1459
  312POPX   GL1 3735  19.307  22.041   7.871 -0.1264  0.1577  0.2060
  312POPX   GL2 3736  19.444  22.170   7.648 -0.0214 -0.2483  0.0310
  312POPX   C1A 3737  18.972  21.832   7.660 -0.2127 -0.0682 -0.1443
  312POPX   D2A 3738  19.063  21.369   7.591  0.0136  0.2220  0.1873
  312POPX   C3A 3739  19.410  21.224   7.297  0.0932 -0.2297  0.0157
  312POPX   C4A 3740  19.636  21.043   6.888  0.1485 -0.1107 -0.0434
  312POPX   C1B 3741  19.399  22.253   7.283  0.1590  0.3974 -0.0787
  312POPX   C2B 3742  19.219  22.066   6.975 -0.3201 -0.0729 -0.0921
  312POPX   C3B 3743  19.103  22.028   6.505 -0.0700  0.1742 -0.0275
  312POPX   C4B 3744  18.893  21.987   6.064 -0.1158  0.1649  0.0927
  313POPX   NC3 3745   0.180  23.926   7.681 -0.1792 -0.5771  0.3146
  313POPX   PO4 3746   0.010  23.634   7.502  0.2180 -0.0693 -0.0368
  313POPX   GL1 3747   0.161  23.607   7.190  0.1146 -0.2385  0.2724
  313POPX   GL2 3748   0.157  23.284   7.240 -0.3334 -0.2095  0.0751
  313POPX   C1A 3749   0.248  23.640   6.734  0.4199  0.0420  0.1094
  313POPX   D2A 3750   0.376  23.604   6.292 -0.0043  0.2607 -0.1484
  313POPX   C3A 3751   0.315  23.564   5.810 -0.1134 -0.0894  0.1078
  313POPX   C4A 3752   0.569  23.665   5.405  0.0253 -0.1633  0.0441
  313POPX   C1B 3753   0.230  23.200   6.921 -0.2358 -0.0219  0.1138
  313POPX   C2B 3754   0.241  23.140   6.512  0.0271 -0.1805 -0.2091
  313POPX   C3B 3755   0.114  23.140   6.033  0.1581 -0.0371 -0.0143
  313POPX   C4B 3756   0.067  23.075   5.557 -0.2730 -0.0255  0.0539
  314POPX   NC3 3757  12.855   9.035   8.425 -0.1280  0.0971 -0.2337
  314POPX   PO4 3758  13.137   8.773   8.299 -0.0141 -0.1117  0.0509
  314POPX   GL1 3759  12.986   8.489   7.923 -0.0919  0.2708  0.2843
  314POPX   GL2 3760  13.293   8.551   7.906 -0.2315  0.2752  0.2478
  314POPX   C1A 3761  12.960   8.574   7.512 -0.1922 -0.1464  0.0329
  314POPX   D2A 3762  13.402   8.578   7.182 -0.1051 -0.0696 -0.0370
  314POPX   C3A 3763  13.457   8.403   6.759  0.2785  0.5360  0.2761
  314POPX   C4A 3764  13.310   8.551   6.369 -0.2266 -0.0350 -0.1317
  314POPX   C1B 3765  13.369   8.708   7.600  0.1066  0.2821 -0.0820
  314POPX   C2B 3766  13.276   9.045   7.373  0.0723  0.1109  0.1814
  314POPX   C3B 3767  13.040   9.408   7.323 -0.1697 -0.2059 -0.2236
  314POPX   C4B 3768  12.816   9.550   6.934 -0.1342  0.0114 -0.0767
  315POPX   NC3 3769  21.274   3.903   7.724  0.0357  0.0743  0.1869
  315POPX   PO4 3770  21.688   3.970   7.647  0.0019 -0.0726  0.1796
  315POPX   GL1 3771  22.043   4.137   7.363 -0.1871 -0.2026 -0.1136
  315POPX   GL2 3772  21.780   4.183   7.173  0.3006 -0.1051 -0.1030
  315POPX   C1A 3773  22.458   4.200   7.268  0.0374  0.0941 -0.1700
  315POPX   D2A 3774  22.856   3.934   7.149 -0.1293  0.2158 -0.0089
  315POPX   C3A 3775  23.037   3.614   6.750  0.1756 -0.1848 -0.1502
  315POPX   C4A 3776  23.042   3.650   6.240 -0.2044 -0.2285  0.3343
  315POPX   C1B 3777  22.087   4.207   6.931  0.1301  0.3806 -0.2873
  315POPX   C2B 3778  22.433   4.240   6.797 -0.0444  0.1356  0.2954
  315POPX   C3B 3779  22.771   4.192   6.380 -0.0262 -0.3212  0.1786
  315POPX   C4B 3780  23.002   4.141   5.977 -0.1505 -0.1218 -0.1075
  316POPX   NC3 3781  15.927  25.407   7.801  0.1190 -0.0969 -0.2390
  316POPX   PO4 3782  15.745  25.782   7.883 -0.2115 -0.1878  0.1503
  316POPX   GL1 3783  15.506  25.993   7.652  0.0163  0.2778  0.1592
  316POPX   GL2 3784  15.646  25.845   7.438  0.0376  0.1287 -0.0547
  316POPX   C1A 3785  15.240  26.288   7.496 -0.2603 -0.0888 -0.0316
  316POPX   D2A 3786  15.049  26.360   7.052  0.2815  0.2846  0.1638
  316POPX   C3A 3787  14.910  26.690   6.836  0.3764 -0.2067  0.0150
  316POPX   C4A 3788  14.701  26.934   6.454 -0.0054 -0.3712 -0.1843
  316POPX   C1B 3789  15.698  25.966   7.130 -0.0500 -0.2877  0.0514
  316POPX   C2B 3790  15.875  26.000   6.770  0.4043 -0.0470  0.1076
  316POPX   C3B 3791  15.618  26.244   6.363 -0.1554 -0.1118 -0.1426
  316POPX   C4B 3792  15.417  26.578   6.053 -0.1050 -0.1794 -0.0325
  317POPX   NC3 3793  19.344  20.685   8.138 -0.1183 -0.1430 -0.0639
  317POPX   PO4 3794  19.636  20.622   7.873 -0.0953 -0.2072  0.1855
  317POPX   GL1 3795  19.580  20.732   7.458  0.1930  0.0028 -0.1115
  317POPX   GL2 3796  19.873  20.662   7.411 -0.1459 -0.2055  0.2006
  317POPX   C1A 3797  19.411  20.630   7.032  0.0243 -0.1695  0.0704
  317POPX   D2A 3798  18.986  20.496   6.837  0.2003  0.1901 -0.0588
  317POPX   C3A 3799  18.767  20.654   6.439  0.1476 -0.1240 -0.1216
  317POPX   C4A 3800  18.368  20.639   6.263 -0.1626 -0.1252 -0.2305
  317POPX   C1B 3801  19.924  20.560   7.049 -0.0060 -0.1901 -0.2627
  317POPX   C2B 3802  19.700  20.448   6.730 -0.3338  0.0456 -0.0555
  317POPX   C3B 3803  19.549  20.785   6.482  0.2667 -0.0227  0.0548
  317POPX   C4B 3804  19.536  21.154   6.160 -0.0390 -0.1253  0.1177
  318POPX   NC3 3805   1.915  24.045   7.452 -0.2628 -0.0311 -0.1847
  318POPX   PO4 3806   1.706  23.716   7.527  0.2048 -0.1206 -0.1438
  318POPX   GL1 3807   1.819  23.507   7.211 -0.1663 -0.2291  0.1193
  318POPX   GL2 3808   1.505  23.386   7.173  0.2287 -0.0991  0.1950
  318POPX   C1A 3809   1.886  23.826   6.913  0.3385  0.2384  0.1127
  318POPX   D2A 3810   1.947  24.097   6.541  0.0478 -0.0368  0.2119
  318POPX   C3A 3811   1.729  23.897   6.188  0.2747  0.0755  0.4919
  318POPX   C4A 3812   1.746  23.764   5.662 -0.3231  0.3638 -0.1678
  318POPX   C1B 3813   1.470  23.487   6.848 -0.1182 -0.2361  0.2699
  318POPX   C2B 3814   1.472  23.477   6.476  0.1471 -0.2519 -0.1980
  318POPX   C3B 3815   1.632  23.423   6.002 -0.0625  0.1258  0.0459
  318POPX   C4B 3816   1.844  23.097   5.717  0.2013  0.0204  0.2225
  319POPX   NC3 3817   7.964   0.566   7.538  0.0902 -0.0233  0.1751
  319POPX   PO4 3818   8.357   0.411   7.540 -0.2143  0.0667 -0.0902
  319POPX   GL1 3819   8.302   0.057   7.276  0.1408 -0.0552  0.2795
  319POPX   GL2 3820   7.944   0.167   7.256  0.0364  0.0151 -0.6088
  319POPX   C1A 3821   8.429  -0.036   6.893  0.0780  0.1964  0.0153
  319POPX   D2A 3822   8.512  -0.161   6.498 -0.0937 -0.2278  0.0594
  319POPX   C3A 3823   9.000  -0.261   6.447 -0.0234 -0.1655 -0.2969
  319POPX   C4A 3824   9.479  -0.160   6.315 -0.1743 -0.0905  0.2245
  319POPX   C1B 3825   7.975   0.074   6.880  0.2632 -0.3539 -0.0710
  319POPX   C2B 3826   7.924  -0.072   6.472  0.0951  0.0059  0.0923
  319POPX   C3B 3827   7.765  -0.203   6.063  0.1877 -0.1660 -0.1849
  319POPX   C4B 3828   7.856  -0.446   5.647 -0.1595 -0.4055 -0.2692
  320POPX   NC3 3829   3.119   4.533   7.809  0.2156 -0.1324  0.0243
  320POPX   PO4 3830   3.157   4.893   7.651 -0.1090 -0.1469  0.0615
  320POPX   GL1 3831   3.078   4.963   7.242 -0.2921 -0.0554  0.0189
  320POPX   GL2 3832   2.922   4.729   7.236  0.0223 -0.1749  0.1620
  320POPX   C1A 3833   2.984   5.200   6.875  0.2360  0.1189  0.0763
  320POPX   D2A 3834   2.876   5.241   6.414 -0.1214  0.1062 -0.2324
  320POPX   C3A 3835   3.037   5.002   6.043 -0.2188 -0.1524  0.1444
  320POPX   C4A 3836   3.179   4.489   5.965 -0.1340  0.0450 -0.2237
  320POPX   C1B 3837   2.812   4.790   6.870  0.0234  0.1347  0.0893
  320POPX   C2B 3838   2.709   4.760   6.454 -0.0428  0.2867  0.0070
  320POPX   C3B 3839   2.556   4.758   5.981 -0.0423 -0.0047  0.0321
  320POPX   C4B 3840   2.245   4.791   5.637  0.0690 -0.0996  0.1289
  321POPX   NC3 3841  25.553  12.206   8.113  0.2414 -0.0634 -0.2871
  321POPX   PO4 3842  25.818  12.170   7.891 -0.2698  0.2857 -0.0522
  321POPX   GL1 3843  25.867  11.985   7.466 -0.1117  0.1233 -0.3394
  321POPX   GL2 3844  25.787  12.291   7.356 -0.2853  0.3452  0.2998
  321POPX   C1A 3845  25.927  11.614   7.225 -0.2172 -0.3744 -0.0185
  321POPX   D2A 3846  26.004  11.543   6.736 -0.0823 -0.3351 -0.3165
  321POPX   C3A 3847  26.138  11.515   6.351 -0.2838 -0.1360 -0.0053
  321POPX   C4A 3848  26.130  11.485   5.868 -0.3338  0.1040  0.1920
  321POPX   C1B 3849  25.645  12.166   7.031  0.2275 -0.2908 -0.2719
  321POPX   C2B 3850  25.521  12.024   6.707 -0.3417 -0.1835  0.0278
  321POPX   C3B 3851  25.103  12.026   6.523  0.0923  0.3057 -0.3723
  321POPX   C4B 3852  24.688  12.190   6.718  0.2699  0.2705 -0.1248
  322POPX   NC3 3853   8.334  26.599   7.506  0.1525  0.0449 -0.1677
  322POPX   PO4 3854   8.458  27.000   7.450 -0.0721  0.0235  0.0318
  322POPX   GL1 3855   8.693  26.971   7.117  0.3341  0.3455  0.1636
  322POPX   GL2 3856   8.622  27.223   7.115  0.0435  0.3419 -0.0318
  322POPX   C1A 3857   8.569  26.992   6.696  0.1253  0.0882 -0.2530
  322POPX   D2A 3858   8.690  27.056   6.225  0.0945 -0.0291 -0.0037
  322POPX   C3A 3859   9.014  26.848   5.976  0.1761  0.1582  0.0304
  322POPX   C4A 3860   9.183  26.610   5.582 -0.0530 -0.1270 -0.1973
  322POPX   C1B 3861   8.875  27.389   6.932 -0.0298  0.2976 -0.0381
  322POPX   C2B 3862   9.279  27.521   6.974  0.0551 -0.0425 -0.1698
  322POPX   C3B 3863   9.796  27.565   6.744  0.2572  0.1948 -0.0315
  322POPX   C4B 3864  10.167  27.809   6.511  0.0374  0.1590  0.0781
  323POPX   NC3 3865   4.261  18.029   7.373 -0.2245 -0.4577 -0.1621
  323POPX   PO4 3866   3.896  17.930   7.551 -0.1680 -0.2403 -0.0804
  323POPX   GL1 3867   3.549  18.122   7.315  0.2364  0.1310  0.1654
  323POPX   GL2 3868   3.704  18.186   7.123  0.1519  0.5386 -0.2094
  323POPX   C1A 3869   3.282  18.001   7.014 -0.1534 -0.0557  0.1220
  323POPX   D2A 3870   3.210  17.719   6.588 -0.2751 -0.1793  0.1614
  323POPX   C3A 3871   3.114  17.550   6.160  0.0369 -0.0878  0.2008
  323POPX   C4A 3872   3.323  17.371   5.738 -0.3262  0.4511 -0.0891
  323POPX   C1B 3873   3.668  18.079   6.748 -0.0006  0.2606  0.3184
  323POPX   C2B 3874   3.661  17.939   6.364 -0.1613 -0.1372 -0.1777
  323POPX   C3B 3875   3.637  17.644   6.011 -0.5317 -0.2217  0.1864
  323POPX   C4B 3876   3.887  17.319   5.785 -0.1071  0.0125  0.2194
  324POPX   NC3 3877  26.156  21.979   7.771 -0.0554 -0.1580  0.0227
  324POPX   PO4 3878  26.128  21.663   7.509  0.1792 -0.2894  0.4192
  324POPX   GL1 3879  26.184  21.618   7.082  0.2570 -0.0938 -0.1359
  324POPX   GL2 3880  25.955  21.781   6.988 -0.2513  0.0712  0.0922
  324POPX   C1A 3881  26.476  21.763   6.882 -0.2531  0.2388  0.0114
  324POPX   D2A 3882  26.818  21.862   6.515 -0.1221 -0.0653  0.1252
  324POPX   C3A 3883  26.764  21.804   6.055  0.0383  0.2852  0.1324
  324POPX   C4A 3884  26.785  21.977   5.593  0.2949 -0.0462 -0.0132
  324POPX   C1B 3885  26.023  21.757   6.626 -0.2203  0.1159 -0.1044
  324POPX   C2B 3886  26.126  21.798   6.260  0.3358 -0.0899 -0.0842
  324POPX   C3B 3887  25.980  21.651   5.834 -0.1292  0.0067  0.2584
  324POPX   C4B 3888  25.938  21.586   5.340 -0.0846 -0.3719 -0.0884
  325POPX   NC3 3889   9.499  18.734   7.870 -0.1863 -0.1311 -0.4444
  325POPX   PO4 3890   9.365  19.107   7.672 -0.0416 -0.0900 -0.1830
  325POPX   GL1 3891   9.025  19.066   7.398  0.3442  0.2389  0.1307
  325POPX   GL2 3892   9.107  18.785   7.328  0.3080 -0.3694  0.1231
  325POPX   C1A 3893   8.847  19.408   7.215  0.1881  0.1737 -0.0144
  325POPX   D2A 3894   8.510  19.755   7.069  0.0952 -0.1450  0.1039
  325POPX   C3A 3895   8.437  19.745   6.583 -0.1938 -0.0633  0.0977
  325POPX   C4A 3896   8.041  19.503   6.332 -0.2634 -0.2418  0.2379
  325POPX   C1B 3897   8.944  18.647   7.023 -0.1905 -0.1521 -0.1396
  325POPX   C2B 3898   8.927  18.397   6.710 -0.0203 -0.0309 -0.1583
  325POPX   C3B 3899   8.821  18.427   6.251  0.0731 -0.1374 -0.0850
  325POPX   C4B 3900   8.771  18.594   5.732  0.1499 -0.0556 -0.0248
  326POPX   NC3 3901  25.366   4.342   8.291  0.1625  0.0419 -0.0588
  326POPX   PO4 3902  25.064   4.554   8.189  0.2427  0.1618  0.1053
  326POPX   GL1 3903  24.960   4.320   7.856  0.1535  0.0458 -0.3700
  326POPX   GL2 3904  25.050   4.602   7.709 -0.0195 -0.2944  0.2151
  326POPX   C1A 3905  24.977   3.952   7.553  0.1972 -0.0296  0.0876
  326POPX   D2A 3906  24.958   3.908   7.050 -0.0828  0.0119 -0.2715
  326POPX   C3A 3907  24.694   4.098   6.758  0.3529 -0.0901  0.0729
  326POPX   C4A 3908  24.690   4.334   6.332  0.2135 -0.2637  0.2160
  326POPX   C1B 3909  25.026   4.442   7.365  0.1665 -0.2839 -0.3546
  326POPX   C2B 3910  25.058   4.458   6.959  0.0363  0.3244 -0.1275
  326POPX   C3B 3911  25.246   4.422   6.522  0.0839  0.1787  0.0532
  326POPX   C4B 3912  25.131   4.121   6.157  0.2103 -0.0603 -0.3532
  327POPX   NC3 3913   5.981   9.706   7.442  0.1392  0.1210 -0.4638
  327POPX   PO4 3914   6.301   9.435   7.386  0.0930  0.0863 -0.2094
  327POPX   GL1 3915   6.448   9.414   6.959  0.0999  0.2023 -0.2029
  327POPX   GL2 3916   6.258   9.672   7.026 -0.3639  0.0004 -0.1338
  327POPX   C1A 3917   6.240   9.135   6.672 -0.0984 -0.0046 -0.1546
  327POPX   D2A 3918   5.742   9.160   6.563  0.1980 -0.1716  0.1639
  327POPX   C3A 3919   5.551   8.948   6.267  0.0926  0.4362  0.0671
  327POPX   C4A 3920   5.244   8.752   5.933  0.0084 -0.2552  0.1871
  327POPX   C1B 3921   6.108   9.583   6.696  0.1433 -0.5718  0.1571
  327POPX   C2B 3922   6.070   9.443   6.282 -0.0572 -0.2524  0.0621
  327POPX   C3B 3923   6.053   9.224   5.885  0.0618  0.0007  0.0422
  327POPX   C4B 3924   6.286   8.892   5.707  0.0947  0.2433  0.1049
  328POPX   NC3 3925  13.504  18.898   8.154 -0.0452  0.0417  0.0138
  328POPX   PO4 3926  13.309  19.120   7.909 -0.0745  0.0184  0.1165
  328POPX   GL1 3927  13.279  19.185   7.464  0.1140 -0.0957  0.2428
  328POPX   GL2 3928  13.004  19.309   7.490 -0.0300  0.2209  0.2280
  328POPX   C1A 3929  13.396  19.287   7.058  0.0994  0.0098  0.2702
  328POPX   D2A 3930  13.594  19.435   6.631  0.1981 -0.4548  0.0263
  328POPX   C3A 3931  13.736  19.532   6.194 -0.0286 -0.1095 -0.3983
  328POPX   C4A 3932  13.777  19.423   5.770 -0.1759 -0.2384  0.0511
  328POPX   C1B 3933  12.841  19.357   7.145  0.1889 -0.0870 -0.3882
  328POPX   C2B 3934  12.963  19.271   6.771  0.0004 -0.1484  0.3274
  328POPX   C3B 3935  13.178  19.329   6.342 -0.0818  0.1428  0.0539
  328POPX   C4B 3936  13.297  19.537   5.892 -0.1606  0.0061 -0.0549
  329POPX   NC3 3937  27.324   5.904   7.742 -0.3954  0.3457 -0.0834
  329POPX   PO4 3938  27.467   6.255   7.801 -0.3054 -0.1564 -0.1816
  329POPX   GL1 3939  27.322   6.481   7.509 -0.2568 -0.0941  0.1876
  329POPX   GL2 3940  27.607   6.526   7.495 -0.2361 -0.1482  0.2675
  329POPX   C1A 3941  27.306   6.291   7.127 -0.2348 -0.0802 -0.1704
  329POPX   D2A 3942  27.419   6.176   6.695  0.1022  0.0164  0.1574
  329POPX   C3A 3943  27.298   5.776   6.961  0.0986 -0.1536  0.0587
  329POPX   C4A 3944  27.014   5.716   7.348 -0.2534  0.1397 -0.0401
  329POPX   C1B 3945  27.745   6.644   7.189 -0.5752 -0.0988  0.4681
  329POPX   C2B 3946  28.142   6.675   7.033  0.2350  0.2056 -0.0530
  329POPX   C3B 3947  28.292   6.528   6.575  0.1291 -0.2692 -0.0383
  329POPX   C4B 3948  28.294   6.503   6.077  0.0397 -0.4311 -0.0333
  330POPX   NC3 3949   4.684  12.780   7.230  0.3103  0.1512  0.0737
  330POPX   PO4 3950   4.346  12.628   7.271 -0.3455  0.0328  0.1937
  330POPX   GL1 3951   4.199  12.572   6.855  0.1813  0.1627  0.0925
  330POPX   GL2 3952   4.286  12.314   6.885 -0.3971  0.2393 -0.2062
  330POPX   C1A 3953   3.996  12.712   6.514 -0.1525  0.1268 -0.0253
  330POPX   D2A 3954   3.906  12.730   6.037 -0.2187  0.1465 -0.2116
  330POPX   C3A 3955   3.774  12.584   5.645 -0.0186 -0.0308 -0.2005
  330POPX   C4A 3956   3.530  12.555   5.242 -0.1449  0.1888  0.0796
  330POPX   C1B 3957   4.246  12.287   6.527  0.1847 -0.4379  0.0698
  330POPX   C2B 3958   4.323  12.349   6.161 -0.1537 -0.2543  0.0136
  330POPX   C3B 3959   4.114  12.204   5.816 -0.3071  0.0233  0.2939
  330POPX   C4B 3960   3.830  12.100   5.450 -0.1329 -0.1038 -0.0493
  331POPX   NC3 3961  25.327  23.300   7.330  0.2795  0.2064  0.1933
  331POPX   PO4 3962  25.084  22.949   7.417  0.1485 -0.1493  0.0107
  331POPX   GL1 3963  25.176  22.829   7.093  0.1070  0.1459 -0.2429
  331POPX   GL2 3964  25.044  23.055   7.011  0.2548 -0.1397  0.1505
  331POPX   C1A 3965  25.307  22.562   6.834  0.2683 -0.0278  0.0350
  331POPX   D2A 3966  25.502  22.439   6.409 -0.1295  0.1454 -0.1280
  331POPX   C3A 3967  25.424  22.289   6.053  0.2280  0.1854 -0.0044
  331POPX   C4A 3968  25.433  22.048   5.632 -0.1426  0.1367  0.3092
  331POPX   C1B 3969  24.926  23.302   6.801  0.0766  0.0174 -0.1270
  331POPX   C2B 3970  24.820  23.340   6.417  0.2249 -0.0468  0.1004
  331POPX   C3B 3971  24.904  23.298   5.949 -0.0948 -0.0820 -0.2019
  331POPX   C4B 3972  25.065  23.123   5.559 -0.1350  0.2708  0.1714
  332POPX   NC3 3973  20.350  21.126   7.924 -0.1934 -0.0322  0.0700
  332POPX   PO4 3974  20.495  21.461   7.706 -0.0066  0.1493 -0.0289
  332POPX   GL1 3975  20.271  21.414   7.295 -0.0956 -0.1084 -0.2035
  332POPX   GL2 3976  20.172  21.206   7.289  0.0134  0.2996  0.0443
  332POPX   C1A 3977  20.419  21.455   6.842 -0.0497 -0.1609 -0.1627
  332POPX   D2A 3978  20.423  21.572   6.376 -0.2019 -0.2010 -0.0334
  332POPX   C3A 3979  20.179  21.438   6.012  0.1915 -0.0569  0.1373
  332POPX   C4A 3980  19.719  21.438   5.783  0.0953  0.1443 -0.0679
  332POPX   C1B 3981  20.204  21.015   6.993  0.2858  0.1690  0.1122
  332POPX   C2B 3982  20.060  20.804   6.665  0.3293  0.1913  0.0990
  332POPX   C3B 3983  20.467  20.673   6.315 -0.0243  0.0035 -0.1861
  332POPX   C4B 3984  20.568  20.678   5.863 -0.1455 -0.4813 -0.1773
  333POPX   NC3 3985  14.033   4.122   7.673 -0.0576  0.0355 -0.0680
  333POPX   PO4 3986  14.178   4.495   7.641  0.0366  0.1427 -0.0209
  333POPX   GL1 3987  13.960   4.759   7.370  0.0105 -0.2717  0.0004
  333POPX   GL2 3988  14.148   4.955   7.307 -0.0705  0.0075  0.3627
  333POPX   C1A 3989  13.662   5.031   7.179  0.3504 -0.0006  0.1191
  333POPX   D2A 3990  13.706   5.184   6.689 -0.1034 -0.0436 -0.3640
  333POPX   C3A 3991  13.710   5.152   6.261 -0.0749 -0.0959 -0.0857
  333POPX   C4A 3992  13.591   4.988   5.842  0.1162  0.0515  0.0690
  333POPX   C1B 3993  14.205   5.042   6.957 -0.3216  0.0662  0.3224
  333POPX   C2B 3994  14.241   5.073   6.526  0.0960 -0.0002 -0.2100
  333POPX   C3B 3995  14.213   5.287   6.046 -0.0309 -0.0680  0.0760
  333POPX   C4B 3996  14.203   5.659   5.758 -0.0189 -0.0507 -0.1090
  334POPX   NC3 3997   4.248  14.661   7.101  0.1294  0.1185  0.4293
  334POPX   PO4 3998   3.910  14.496   7.176 -0.1939  0.0471 -0.4817
  334POPX   GL1 3999   3.600  14.363   6.943  0.0748 -0.0475 -0.3194
  334POPX   GL2 4000   3.665  14.133   6.870 -0.3266  0.0833 -0.0938
  334POPX   C1A 4001   3.377  14.425   6.579 -0.0840 -0.1327  0.1412
  334POPX   D2A 4002   2.959  14.696   6.582  0.1598  0.0501  0.1317
  334POPX   C3A 4003   2.752  15.001   6.262  0.1755  0.2021 -0.0488
  334POPX   C4A 4004   2.357  15.283   6.403 -0.1390 -0.0713  0.2687
  334POPX   C1B 4005   3.738  14.116   6.530 -0.1533  0.1583  0.2282
  334POPX   C2B 4006   3.487  14.088   6.210 -0.0613  0.0306  0.2773
  334POPX   C3B 4007   3.168  14.240   5.812 -0.0841 -0.1938 -0.2664
  334POPX   C4B 4008   2.761  14.428   5.548 -0.0925  0.2274  0.1651
  335POPX   NC3 4009  17.564   2.563   7.697 -0.1745 -0.0375 -0.1462
  335POPX   PO4 4010  17.875   2.301   7.626  0.4455  0.0790 -0.1437
  335POPX   GL1 4011  17.874   2.204   7.170  0.0482 -0.1918 -0.2005
  335POPX   GL2 4012  17.637   2.417   7.261 -0.1963  0.2382 -0.2876
  335POPX   C1A 4013  17.755   2.132   6.797  0.0528  0.2617 -0.0979
  335POPX   D2A 4014  17.399   2.004   6.444  0.2279  0.0189  0.0315
  335POPX   C3A 4015  17.095   2.075   6.068 -0.0230  0.3732 -0.0780
  335POPX   C4A 4016  16.835   2.048   5.635  0.3640  0.2045 -0.1150
  335POPX   C1B 4017  17.518   2.476   6.953 -0.0969 -0.3928  0.0086
  335POPX   C2B 4018  17.394   2.495   6.575  0.0074  0.1138  0.2272
  335POPX   C3B 4019  17.127   2.561   6.158 -0.2563  0.0624  0.2675
  335POPX   C4B 4020  17.101   2.516   5.628 -0.2281 -0.1269 -0.0793
  336POPX   NC3 4021  16.559  19.806   7.802 -0.1506 -0.0673  0.0094
  336POPX   PO4 4022  16.596  19.434   7.799  0.0263  0.0071 -0.2048
  336POPX   GL1 4023  16.657  19.252   7.435 -0.2314  0.3321 -0.1341
  336POPX   GL2 4024  16.925  19.192   7.585  0.2171 -0.3673 -0.0167
  336POPX   C1A 4025  16.700  18.860   7.209  0.2410 -0.1535 -0.0752
  336POPX   D2A 4026  17.001  18.630   6.812  0.3080 -0.3091  0.0132
  336POPX   C3A 4027  16.988  18.826   6.386  0.2377  0.1842  0.1537
  336POPX   C4A 4028  17.076  19.031   5.932 -0.0392 -0.0048 -0.0416
  336POPX   C1B 4029  17.182  19.007   7.370 -0.2003  0.1635  0.2061
  336POPX   C2B 4030  17.217  18.614   7.258  0.2777  0.4118  0.0765
  336POPX   C3B 4031  16.978  18.212   7.050  0.0105 -0.0967 -0.0674
  336POPX   C4B 4032  16.619  17.935   6.874 -0.0449 -0.0417  0.1002
  337POPX   NC3 4033  16.203  22.318   7.874 -0.1061 -0.1949 -0.1611
  337POPX   PO4 4034  16.308  22.049   7.647 -0.0884  0.1676  0.0161
  337POPX   GL1 4035  16.356  21.981   7.273 -0.1949  0.2187 -0.2817
  337POPX   GL2 4036  16.492  22.177   7.053  0.0104  0.0673 -0.3148
  337POPX   C1A 4037  16.250  21.765   6.941 -0.1208 -0.1737 -0.0861
  337POPX   D2A 4038  15.996  21.737   6.527 -0.0279 -0.1930  0.0989
  337POPX   C3A 4039  16.013  22.117   6.229  0.0811  0.2747 -0.1116
  337POPX   C4A 4040  15.649  22.175   5.940  0.2667  0.0315 -0.0588
  337POPX   C1B 4041  16.511  22.135   6.631 -0.2509  0.1917  0.1787
  337POPX   C2B 4042  16.606  22.170   6.250  0.1352  0.0740  0.1788
  337POPX   C3B 4043  16.821  22.339   5.776 -0.0104 -0.1403  0.3568
  337POPX   C4B 4044  17.014  22.397   5.320  0.0729 -0.1456 -0.3699
  338POPX   NC3 4045   6.171  10.492   7.693 -0.2942  0.0892  0.2517
  338POPX   PO4 4046   5.844  10.292   7.550 -0.1178  0.2252  0.0425
  338POPX   GL1 4047   5.977  10.101   7.211  0.1157 -0.2342  0.0444
  338POPX   GL2 4048   6.250  10.169   7.139 -0.3016 -0.0961  0.0553
  338POPX   C1A 4049   5.834   9.860   6.971  0.0703 -0.3070 -0.1705
  338POPX   D2A 4050   5.685   9.653   6.514  0.2100  0.0839  0.1731
  338POPX   C3A 4051   5.633   9.401   6.097 -0.0368  0.0269 -0.0121
  338POPX   C4A 4052   5.391   9.181   5.704 -0.1677  0.0459  0.1638
  338POPX   C1B 4053   6.344  10.306   6.814  0.2208 -0.4244 -0.4221
  338POPX   C2B 4054   6.263  10.078   6.458 -0.0523 -0.1394 -0.0436
  338POPX   C3B 4055   6.202   9.866   6.018 -0.5322  0.1473 -0.0044
  338POPX   C4B 4056   6.255   9.556   5.579 -0.0919 -0.0923 -0.2090
  339POPX   NC3 4057   0.034  26.908   7.815  0.2549 -0.1840  0.0589
  339POPX   PO4 4058  -0.174  26.591   7.773 -0.3199  0.2462  0.1955
  339POPX   GL1 4059  -0.144  26.358   7.395  0.0451 -0.3119 -0.1337
  339POPX   GL2 4060  -0.339  26.431   7.292 -0.1291  0.1935  0.2276
  339POPX   C1A 4061   0.177  26.183   7.140 -0.0516 -0.3397 -0.2632
  339POPX   D2A 4062   0.005  25.824   6.781  0.0036  0.0935 -0.1788
  339POPX   C3A 4063   0.022  25.921   6.329 -0.2852 -0.1730  0.1381
  339POPX   C4A 4064  -0.114  25.968   5.860 -0.0287 -0.1207 -0.0218
  339POPX   C1B 4065  -0.275  26.289   6.975 -0.1021 -0.1818 -0.2975
  339POPX   C2B 4066  -0.188  26.304   6.582 -0.0928 -0.0333 -0.1195
  339POPX   C3B 4067  -0.085  26.425   6.054 -0.1450 -0.0407  0.1727
  339POPX   C4B 4068  -0.236  26.391   5.601 -0.1533 -0.1854  0.0096
  340POPX   NC3 4069  11.235  24.126   7.373 -0.2341 -0.0040  0.0865
  340POPX   PO4 4070  11.557  24.072   7.157  0.1082  0.0584 -0.1199
  340POPX   GL1 4071  11.581  23.902   6.809  0.0126  0.0277  0.3312
  340POPX   GL2 4072  11.772  24.070   6.750  0.0332  0.0280  0.1996
  340POPX   C1A 4073  11.341  23.734   6.461 -0.0370  0.4082  0.1308
  340POPX   D2A 4074  11.380  23.793   5.981  0.3083 -0.2843 -0.0599
  340POPX   C3A 4075  11.480  23.457   5.684  0.5787 -0.0163  0.0641
  340POPX   C4A 4076  11.524  23.151   5.301 -0.3386 -0.2157  0.2313
  340POPX   C1B 4077  11.881  24.033   6.429  0.3628  0.1078  0.0123
  340POPX   C2B 4078  11.730  24.265   6.082 -0.2802  0.0528 -0.4923
  340POPX   C3B 4079  11.711  24.408   5.652  0.2050  0.0525 -0.0465
  340POPX   C4B 4080  11.247  24.731   5.584 -0.3017 -0.0998 -0.0777
  341POPX   NC3 4081   4.032  13.938   7.083  0.1119  0.2492 -0.0855
  341POPX   PO4 4082   4.309  14.171   7.139  0.2365  0.1151 -0.0653
  341POPX   GL1 4083   4.516  14.169   6.769  0.1123  0.1541  0.3954
  341POPX   GL2 4084   4.527  14.444   6.768 -0.0638 -0.2597  0.3396
  341POPX   C1A 4085   4.445  13.978   6.475  0.1075 -0.1950  0.0838
  341POPX   D2A 4086   4.543  14.028   6.010  0.2780 -0.1851  0.2282
  341POPX   C3A 4087   4.263  14.205   5.680 -0.0821  0.1298 -0.2729
  341POPX   C4A 4088   4.361  14.645   5.844  0.2395  0.1500 -0.2018
  341POPX   C1B 4089   4.286  14.706   6.646  0.0435  0.0487 -0.0642
  341POPX   C2B 4090   4.104  15.029   6.639  0.0958  0.1353  0.2927
  341POPX   C3B 4091   3.994  15.159   6.171  0.3401 -0.0528 -0.0541
  341POPX   C4B 4092   3.912  15.475   5.710 -0.3625  0.2411  0.1463
  342POPX   NC3 4093  10.878  13.645   7.838 -0.0645  0.0403  0.0952
  342POPX   PO4 4094  11.237  13.611   7.691  0.2361  0.1360  0.2091
  342POPX   GL1 4095  11.343  13.739   7.256 -0.3250 -0.2131  0.1370
  342POPX   GL2 4096  11.256  13.513   7.210 -0.2976  0.2214  0.0742
  342POPX   C1A 4097  11.486  14.050   6.971  0.1838  0.3761 -0.2157
  342POPX   D2A 4098  11.507  14.465   6.721 -0.2731 -0.0840  0.2241
  342POPX   C3A 4099  11.678  14.600   6.311  0.0368  0.1086 -0.0185
  342POPX   C4A 4100  11.803  14.642   5.795  0.2286  0.0789 -0.1260
  342POPX   C1B 4101  11.414  13.358   6.938 -0.2288 -0.0247  0.0108
  342POPX   C2B 4102  11.366  13.344   6.533 -0.4719 -0.0788  0.0524
  342POPX   C3B 4103  11.335  13.498   6.089  0.2565  0.0061  0.1045
  342POPX   C4B 4104  11.300  13.682   5.645  0.1380  0.0053 -0.0067
  343POPX   NC3 4105   3.211  24.568   8.351  0.0207 -0.1637  0.0034
  343POPX   PO4 4106   3.572  24.450   8.145 -0.3340  0.4573 -0.0098
  343POPX   GL1 4107   3.615  24.390   7.721  0.3611 -0.0567  0.1735
  343POPX   GL2 4108   3.867  24.476   7.766 -0.1253 -0.0134 -0.0275
  343POPX   C1A 4109   3.615  24.276   7.277  0.1777 -0.0334 -0.2670
  343POPX   D2A 4110   3.610  24.241   6.824  0.1232 -0.2634  0.2117
  343POPX   C3A 4111   3.682  24.410   6.374 -0.2377 -0.2187 -0.0850
  343POPX   C4A 4112   3.910  24.683   6.098 -0.1163  0.3379  0.2031
  343POPX   C1B 4113   4.020  24.466   7.433  0.0155  0.0761  0.2435
  343POPX   C2B 4114   4.081  24.457   7.027  0.0274 -0.4365  0.4287
  343POPX   C3B 4115   4.181  24.446   6.546 -0.1139 -0.0555 -0.0535
  343POPX   C4B 4116   4.628  24.396   6.267  0.1887 -0.0088 -0.4871
  344POPX   NC3 4117  13.452   0.813   7.797 -0.2566 -0.1631 -0.1111
  344POPX   PO4 4118  13.538   1.154   7.981 -0.1569  0.1599 -0.1859
  344POPX   GL1 4119  13.770   1.419   7.728  0.3865  0.2612 -0.0341
  344POPX   GL2 4120  13.902   1.224   7.550  0.2388 -0.2635  0.0208
  344POPX   C1A 4121  13.579   1.588   7.408 -0.2139 -0.0200 -0.0318
  344POPX   D2A 4122  13.115   1.639   7.153 -0.0306  0.0319  0.0401
  344POPX   C3A 4123  13.195   1.678   6.693  0.1108  0.0268  0.1621
  344POPX   C4A 4124  13.435   1.635   6.260  0.0470  0.1233 -0.4127
  344POPX   C1B 4125  13.878   1.410   7.198 -0.0525 -0.0242  0.0301
  344POPX   C2B 4126  13.878   1.553   6.789 -0.2540  0.0270 -0.1468
  344POPX   C3B 4127  13.926   1.578   6.316 -0.3235 -0.1302 -0.0499
  344POPX   C4B 4128  13.815   1.533   5.819 -0.0638  0.1341 -0.1022
  345POPX   NC3 4129   9.204   1.225   7.475  0.2070 -0.1485  0.1730
  345POPX   PO4 4130   9.207   0.861   7.573  0.3657  0.3152  0.0149
  345POPX   GL1 4131   9.079   0.668   7.189 -0.4829  0.2472 -0.2256
  345POPX   GL2 4132   8.963   0.915   7.132  0.2288  0.4048 -0.2809
  345POPX   C1A 4133   9.274   0.517   6.850 -0.0938 -0.1385 -0.1236
  345POPX   D2A 4134   9.227   0.209   6.401 -0.0433 -0.3044  0.1799
  345POPX   C3A 4135   9.225   0.225   5.903 -0.1958  0.0547  0.1535
  345POPX   C4A 4136   9.116   0.505   5.435 -0.1809  0.1732  0.0153
  345POPX   C1B 4137   8.758   0.799   6.828  0.0855  0.2770  0.1146
  345POPX   C2B 4138   8.694   0.774   6.413  0.0567  0.0640  0.0473
  345POPX   C3B 4139   8.697   0.581   5.950 -0.0913 -0.3315 -0.2106
  345POPX   C4B 4140   8.820   0.135   5.679 -0.0018  0.0034 -0.0265
  346POPX   NC3 4141  19.100  15.888   7.378 -0.1078  0.5359  0.1869
  346POPX   PO4 4142  19.469  15.737   7.225  0.2495  0.2199  0.1159
  346POPX   GL1 4143  19.340  15.543   6.897  0.1467 -0.3238 -0.1439
  346POPX   GL2 4144  19.208  15.795   6.772  0.0876  0.1985  0.1332
  346POPX   C1A 4145  19.491  15.216   6.556  0.1780 -0.1301  0.0471
  346POPX   D2A 4146  19.909  15.285   6.294  0.3024  0.1525 -0.0773
  346POPX   C3A 4147  20.028  15.503   5.930 -0.0759 -0.0357 -0.0191
  346POPX   C4A 4148  20.363  15.523   5.653 -0.0067  0.0251  0.0327
  346POPX   C1B 4149  19.050  15.663   6.461  0.2648 -0.2525 -0.1725
  346POPX   C2B 4150  19.044  15.492   6.068  0.2005  0.1481 -0.0929
  346POPX   C3B 4151  18.943  15.321   5.648 -0.3493 -0.0820 -0.2502
  346POPX   C4B 4152  18.571  15.179   5.361  0.1459  0.0007  0.1954
  347POPX   NC3 4153   0.847  24.476   7.748  0.1362 -0.3787  0.1678
  347POPX   PO4 4154   1.183  24.503   7.906 -0.0612 -0.1019  0.0924
  347POPX   GL1 4155   1.304  24.552   7.511 -0.0936 -0.1796 -0.5609
  347POPX   GL2 4156   1.594  24.502   7.573 -0.0777  0.1113  0.1336
  347POPX   C1A 4157   1.184  24.634   7.102 -0.1191  0.1370  0.1299
  347POPX   D2A 4158   1.273  24.688   6.618  0.0683  0.0528 -0.1039
  347POPX   C3A 4159   1.265  24.673   6.139 -0.2370 -0.2512  0.1045
  347POPX   C4A 4160   1.445  24.567   5.677 -0.1623  0.0808 -0.1458
  347POPX   C1B 4161   1.641  24.572   7.211 -0.0401  0.0652 -0.0574
  347POPX   C2B 4162   1.724  24.492   6.829  0.0614 -0.1742  0.1785
  347POPX   C3B 4163   1.720  24.502   6.265  0.0906 -0.0710  0.0385
  347POPX   C4B 4164   1.815  24.237   5.838 -0.2342  0.0307 -0.1246
  348POPX   NC3 4165  27.170  27.481   7.836  0.2161  0.0403  0.1808
  348POPX   PO4 4166  27.564  27.425   7.810 -0.0952  0.2272 -0.0069
  348POPX   GL1 4167  27.546  27.467   7.362  0.2186  0.1208 -0.2448
  348POPX   GL2 4168  27.350  27.656   7.431 -0.2516  0.3683  0.1082
  348POPX   C1A 4169  27.396  27.240   7.068  0.0850 -0.2517 -0.1079
  348POPX   D2A 4170  27.382  26.829   6.746  0.2778 -0.3648  0.1270
  348POPX   C3A 4171  27.466  26.882   6.302 -0.0495  0.2038  0.2207
  348POPX   C4A 4172  27.513  26.893   5.863  0.0735 -0.0848 -0.1983
  348POPX   C1B 4173  27.184  27.670   7.103  0.0897 -0.1559  0.1488
  348POPX   C2B 4174  27.094  27.613   6.669 -0.0378  0.0812 -0.0962
  348POPX   C3B 4175  27.214  27.643   6.157  0.3472 -0.0170 -0.0098
  348POPX   C4B 4176  27.090  27.744   5.716  0.0046 -0.0149  0.0231
  349POPX   NC3 4177  21.374  27.001   7.833  0.0857  0.1870  0.5923
  349POPX   PO4 4178  21.382  27.220   7.482 -0.1429 -0.0955  0.0755
  349POPX   GL1 4179  21.455  27.363   7.063 -0.2613  0.3665 -0.1674
  349POPX   GL2 4180  21.331  27.605   7.139 -0.0131 -0.2414 -0.1247
  349POPX   C1A 4181  21.396  27.339   6.637  0.0683  0.0030  0.2576
  349POPX   D2A 4182  21.377  27.480   6.163 -0.0268  0.1420 -0.1957
  349POPX   C3A 4183  21.275  27.449   5.698 -0.2821 -0.2697 -0.0485
  349POPX   C4A 4184  21.545  27.385   5.231  0.2171 -0.0990 -0.3719
  349POPX   C1B 4185  21.118  27.752   6.860 -0.1127 -0.0007  0.0126
  349POPX   C2B 4186  21.099  27.806   6.476  0.0675 -0.3923  0.1177
  349POPX   C3B 4187  21.164  28.050   6.043  0.2441  0.2741 -0.1693
  349POPX   C4B 4188  21.109  28.343   5.664 -0.0393 -0.0903  0.2215
  350POPX   NC3 4189   1.057  16.280   7.696 -0.2104 -0.1182 -0.0203
  350POPX   PO4 4190   0.910  16.554   7.475  0.2851  0.0111  0.0524
  350POPX   GL1 4191   0.833  16.552   7.065 -0.2727  0.1640 -0.0475
  350POPX   GL2 4192   0.991  16.312   6.970  0.3563 -0.4298  0.0988
  350POPX   C1A 4193   0.521  16.581   6.768 -0.1898 -0.0289 -0.0244
  350POPX   D2A 4194   0.076  16.664   6.536 -0.0225  0.0913  0.3037
  350POPX   C3A 4195  -0.320  16.950   6.293 -0.1702  0.0188 -0.0625
  350POPX   C4A 4196  -0.593  17.305   6.565 -0.2357 -0.2997  0.0975
  350POPX   C1B 4197   0.794  16.092   6.764  0.4621  0.4603  0.0851
  350POPX   C2B 4198   0.675  15.801   6.492  0.0059 -0.0757 -0.0431
  350POPX   C3B 4199   0.882  15.593   6.107 -0.0705  0.1421  0.5260
  350POPX   C4B 4200   0.885  15.350   5.663  0.1023 -0.1129  0.0915
  351POPX   NC3 4201  13.121   2.538   8.114 -0.3126 -0.0998  0.0993
  351POPX   PO4 4202  13.090   2.176   7.853 -0.1470  0.0357 -0.0147
  351POPX   GL1 4203  13.058   2.021   7.431  0.0119  0.2700  0.0190
  351POPX   GL2 4204  13.409   2.149   7.428 -0.1203 -0.3180 -0.4309
  351POPX   C1A 4205  13.052   2.106   7.030 -0.1224  0.3068  0.0296
  351POPX   D2A 4206  12.956   2.109   6.553 -0.1322  0.2096  0.0765
  351POPX   C3A 4207  13.194   2.148   6.166 -0.0818  0.4053 -0.1511
  351POPX   C4A 4208  13.437   1.888   5.826 -0.2593  0.0681  0.0613
  351POPX   C1B 4209  13.542   2.057   7.079 -0.4122  0.5994  0.1297
  351POPX   C2B 4210  13.641   1.950   6.672 -0.0876 -0.1915  0.0875
  351POPX   C3B 4211  13.695   2.136   6.269 -0.0582  0.0070 -0.1250
  351POPX   C4B 4212  13.845   2.205   5.795  0.2509  0.0230  0.2196
  352POPX   NC3 4213  22.193  18.327   7.565  0.0558  0.2703 -0.1111
  352POPX   PO4 4214  22.068  18.607   7.396  0.1305  0.0821 -0.0958
  352POPX   GL1 4215  21.966  18.723   6.959  0.0503 -0.1455 -0.1200
  352POPX   GL2 4216  22.119  18.523   6.895  0.0400  0.1570 -0.1428
  352POPX   C1A 4217  21.539  18.707   6.775  0.0493 -0.0351 -0.0698
  352POPX   D2A 4218  21.175  18.425   6.522 -0.1853 -0.0811 -0.1982
  352POPX   C3A 4219  21.217  18.312   6.074  0.2937  0.1474  0.0720
  352POPX   C4A 4220  20.968  18.475   5.704  0.1111  0.0177  0.0493
  352POPX   C1B 4221  21.914  18.664   6.556 -0.0089  0.0616  0.1828
  352POPX   C2B 4222  21.687  18.617   6.158 -0.1542  0.1822  0.1683
  352POPX   C3B 4223  21.590  18.348   5.722 -0.0173  0.2236 -0.2528
  352POPX   C4B 4224  21.192  18.055   5.554  0.0171  0.1175  0.0795
  353POPX   NC3 4225  14.546   4.957   7.728 -0.1187 -0.1331  0.2077
  353POPX   PO4 4226  14.895   5.179   7.666  0.2655  0.2570 -0.1383
  353POPX   GL1 4227  14.888   5.309   7.262 -0.1118 -0.2555  0.2852
  353POPX   GL2 4228  14.602   5.292   7.200 -0.2043 -0.2367  0.1059
  353POPX   C1A 4229  15.028   5.234   6.824 -0.3894  0.0918 -0.0324
  353POPX   D2A 4230  14.996   5.393   6.377  0.0982 -0.0696  0.2003
  353POPX   C3A 4231  15.366   5.502   6.190  0.0254 -0.1134  0.2704
  353POPX   C4A 4232  15.747   5.411   5.921 -0.3788  0.0524  0.0156
  353POPX   C1B 4233  14.673   5.045   6.917 -0.4023  0.1042 -0.0416
  353POPX   C2B 4234  14.724   4.964   6.530  0.1494 -0.2087 -0.0610
  353POPX   C3B 4235  14.717   5.049   6.104  0.1407  0.0409  0.0525
  353POPX   C4B 4236  14.584   5.318   5.702  0.0295  0.2896  0.1414
  354POPX   NC3 4237   1.806  14.107   7.245  0.0315 -0.1512 -0.1718
  354POPX   PO4 4238   1.904  13.804   7.451 -0.1334  0.0956  0.2588
  354POPX   GL1 4239   1.978  13.531   7.094 -0.3205  0.2630  0.4494
  354POPX   GL2 4240   1.672  13.731   7.016  0.1119  0.0399 -0.2764
  354POPX   C1A 4241   2.199  13.344   6.770  0.1827 -0.3641  0.0203
  354POPX   D2A 4242   2.488  13.545   6.359 -0.1409 -0.2365  0.2338
  354POPX   C3A 4243   2.577  13.978   6.344 -0.4916  0.1452 -0.2251
  354POPX   C4A 4244   2.654  14.326   6.621  0.2738 -0.1528 -0.0733
  354POPX   C1B 4245   1.773  13.636   6.654  0.0736  0.1254 -0.0539
  354POPX   C2B 4246   1.647  13.718   6.289 -0.2911 -0.0395 -0.0626
  354POPX   C3B 4247   1.835  13.800   5.863 -0.1738 -0.1554 -0.2221
  354POPX   C4B 4248   1.964  14.077   5.475 -0.0958 -0.3265 -0.0759
  355POPX   NC3 4249  13.565  12.484   8.046  0.1163  0.0448 -0.1033
  355POPX   PO4 4250  13.503  12.812   7.830 -0.0080 -0.2185  0.0641
  355POPX   GL1 4251  13.609  12.981   7.437  0.1605  0.1844  0.1858
  355POPX   GL2 4252  13.856  12.955   7.562 -0.0713 -0.1403 -0.4284
  355POPX   C1A 4253  13.439  12.836   7.049  0.0426 -0.0128  0.3616
  355POPX   D2A 4254  13.493  12.826   6.593  0.2038  0.2959  0.0199
  355POPX   C3A 4255  13.527  13.000   6.100  0.0709 -0.0017 -0.3969
  355POPX   C4A 4256  13.687  13.213   5.665 -0.2507  0.2637 -0.2390
  355POPX   C1B 4257  14.006  12.771   7.313 -0.0236  0.1139  0.4538
  355POPX   C2B 4258  13.895  12.726   6.885 -0.0113  0.0599  0.0796
  355POPX   C3B 4259  13.987  12.818   6.458  0.0907 -0.0612  0.1220
  355POPX   C4B 4260  14.070  12.973   5.962  0.0184  0.1947 -0.1454
  356POPX   NC3 4261  26.689  13.629   7.444  0.0540  0.1735 -0.0570
  356POPX   PO4 4262  26.373  13.644   7.657 -0.2296  0.1017  0.1379
  356POPX   GL1 4263  26.204  13.300   7.483  0.0931  0.1731 -0.1170
  356POPX   GL2 4264  26.427  13.351   7.226  0.1493  0.0271 -0.2927
  356POPX   C1A 4265  25.968  13.270   7.079  0.1501  0.2616  0.0751
  356POPX   D2A 4266  25.909  13.182   6.522  0.0269 -0.2673  0.0229
  356POPX   C3A 4267  25.830  12.920   6.222 -0.0867  0.2100 -0.0493
  356POPX   C4A 4268  25.525  12.725   5.825  0.0455 -0.3046  0.0361
  356POPX   C1B 4269  26.426  13.063   7.030  0.2096 -0.1624  0.1789
  356POPX   C2B 4270  26.218  12.850   6.754 -0.0078 -0.1735 -0.2075
  356POPX   C3B 4271  26.187  12.633   6.340 -0.0351  0.1885  0.1177
  356POPX   C4B 4272  25.849  12.453   6.028 -0.0961 -0.0928 -0.3706
  357POPX   NC3 4273  10.644  18.169   8.086  0.0448  0.0187 -0.0756
  357POPX   PO4 4274  10.502  18.362   7.782  0.0467 -0.3889 -0.1946
  357POPX   GL1 4275  10.427  18.146   7.370 -0.1210 -0.3168 -0.0367
  357POPX   GL2 4276  10.609  18.258   7.250 -0.1825 -0.2342 -0.2418
  357POPX   C1A 4277  10.207  17.976   7.062  0.2921 -0.2452  0.0720
  357POPX   D2A 4278  10.201  18.104   6.557  0.2258 -0.3330  0.0549
  357POPX   C3A 4279   9.858  18.108   6.232 -0.1096 -0.0398 -0.2150
  357POPX   C4A 4280   9.629  18.285   5.826  0.0200  0.3900 -0.1869
  357POPX   C1B 4281  10.470  18.351   6.890  0.1645  0.3303  0.2025
  357POPX   C2B 4282  10.333  18.613   6.614 -0.2946  0.1271  0.0852
  357POPX   C3B 4283  10.387  18.839   6.195 -0.3243  0.0692  0.1535
  357POPX   C4B 4284  10.550  18.903   5.727  0.2176  0.0849 -0.2653
  358POPX   NC3 4285   5.605   0.994   8.176  0.3018 -0.0983  0.2290
  358POPX   PO4 4286   5.766   0.814   7.827 -0.0299  0.0865 -0.0149
  358POPX   GL1 4287   5.856   0.769   7.463  0.1608 -0.1752 -0.0966
  358POPX   GL2 4288   5.963   1.004   7.405 -0.0802 -0.0858 -0.1156
  358POPX   C1A 4289   5.821   0.438   7.105  0.0554  0.0146 -0.2752
  358POPX   D2A 4290   5.974   0.281   6.601  0.0181  0.0305  0.0215
  358POPX   C3A 4291   5.886   0.146   6.122 -0.2372  0.1803  0.1940
  358POPX   C4A 4292   5.511  -0.218   6.116 -0.0414 -0.1335  0.1257
  358POPX   C1B 4293   5.920   0.954   7.032  0.4935 -0.0071 -0.1308
  358POPX   C2B 4294   6.032   0.915   6.621  0.1561 -0.0442 -0.2732
  358POPX   C3B 4295   6.003   0.789   6.159 -0.0056  0.0569  0.0538
  358POPX   C4B 4296   5.742   0.529   5.808  0.0156  0.0355 -0.2295
  359POPX   NC3 4297   9.775  23.850   8.021  0.1904 -0.2222 -0.0056
  359POPX   PO4 4298   9.475  23.596   7.918  0.1155  0.1010 -0.0538
  359POPX   GL1 4299   9.530  23.633   7.530 -0.1306 -0.0511  0.0235
  359POPX   GL2 4300   9.804  23.728   7.545 -0.0487  0.2537  0.0277
  359POPX   C1A 4301   9.484  23.939   7.256  0.0857  0.0287  0.2154
  359POPX   D2A 4302   9.471  24.431   7.220 -0.1884  0.3061 -0.1097
  359POPX   C3A 4303   9.567  24.549   6.742  0.2045 -0.0907 -0.3868
  359POPX   C4A 4304   9.674  24.768   6.318  0.0985  0.1363 -0.2566
  359POPX   C1B 4305   9.968  23.559   7.264  0.1423  0.1165  0.1539
  359POPX   C2B 4306  10.128  23.294   6.961 -0.0203 -0.2223 -0.1850
  359POPX   C3B 4307  10.350  23.351   6.520 -0.1701  0.2288  0.0384
  359POPX   C4B 4308  10.564  23.553   6.155  0.0737  0.1762 -0.0235
  360POPX   NC3 4309   9.346  14.532   7.595  0.0305  0.3450 -0.4058
  360POPX   PO4 4310   9.208  14.923   7.567  0.1337 -0.0496 -0.0916
  360POPX   GL1 4311   9.194  14.961   7.144 -0.1756 -0.0185  0.1486
  360POPX   GL2 4312   9.478  14.810   7.125  0.1929 -0.3068  0.0636
  360POPX   C1A 4313   8.936  15.021   6.799 -0.0693  0.2693 -0.1401
  360POPX   D2A 4314   8.985  14.989   6.257 -0.2794  0.1790 -0.1248
  360POPX   C3A 4315   8.965  15.111   5.844 -0.0592 -0.0687  0.0749
  360POPX   C4A 4316   9.035  14.740   5.489 -0.0186 -0.1090  0.0760
  360POPX   C1B 4317   9.453  14.927   6.801 -0.1912 -0.1269 -0.0045
  360POPX   C2B 4318   9.510  14.875   6.360  0.0520 -0.1417  0.0744
  360POPX   C3B 4319   9.433  14.808   5.852  0.0532  0.0499 -0.1433
  360POPX   C4B 4320   9.427  15.210   5.631  0.2224 -0.1947 -0.2560
  361POPX   NC3 4321  16.629   7.339   7.615 -0.1570  0.1335 -0.0359
  361POPX   PO4 4322  16.299   7.390   7.343 -0.3569 -0.0006  0.1763
  361POPX   GL1 4323  16.374   7.377   6.970  0.1782  0.1862 -0.2086
  361POPX   GL2 4324  16.332   7.666   6.834  0.1142 -0.4510 -0.0333
  361POPX   C1A 4325  16.161   7.275   6.532  0.5476 -0.2526 -0.0703
  361POPX   D2A 4326  16.140   7.412   6.096 -0.0811 -0.0967  0.2094
  361POPX   C3A 4327  16.168   7.562   5.676  0.0560  0.0390 -0.2668
  361POPX   C4A 4328  16.455   7.503   5.274  0.0608  0.4963 -0.1740
  361POPX   C1B 4329  16.339   7.769   6.471 -0.4256  0.1752  0.0239
  361POPX   C2B 4330  16.232   7.922   6.140  0.1643  0.0136  0.1299
  361POPX   C3B 4331  16.332   8.005   5.686  0.0940  0.2676 -0.3122
  361POPX   C4B 4332  16.046   7.887   5.259 -0.1058  0.0509 -0.1356
  362POPX   NC3 4333   6.450   8.610   7.522  0.1034 -0.0755  0.0519
  362POPX   PO4 4334   6.507   8.293   7.345  0.4535  0.1412  0.0787
  362POPX   GL1 4335   6.467   8.362   6.930  0.0907  0.1258  0.0616
  362POPX   GL2 4336   6.598   8.159   6.812 -0.0715  0.0239 -0.1993
  362POPX   C1A 4337   6.710   8.619   6.673  0.0876  0.0053 -0.1595
  362POPX   D2A 4338   7.115   8.796   6.527 -0.2041  0.0490  0.1858
  362POPX   C3A 4339   7.298   8.713   6.131  0.1603 -0.0103 -0.0220
  362POPX   C4A 4340   7.713   8.494   5.924  0.1219  0.1568 -0.1016
  362POPX   C1B 4341   6.382   8.177   6.521  0.1297 -0.1054 -0.1159
  362POPX   C2B 4342   6.245   8.297   6.139  0.1523  0.1146 -0.0266
  362POPX   C3B 4343   6.117   8.385   5.672  0.1611 -0.1044  0.0602
  362POPX   C4B 4344   5.597   8.253   5.569  0.0650 -0.4093 -0.1212
  363POPX   NC3 4345   7.440   1.954   7.264  0.2060  0.1966  0.0368
  363POPX   PO4 4346   7.535   1.582   7.186  0.2855  0.0460 -0.1586
  363POPX   GL1 4347   7.189   1.392   6.874  0.0077 -0.0742 -0.1771
  363POPX   GL2 4348   7.145   1.154   7.026 -0.2398 -0.1269  0.1796
  363POPX   C1A 4349   7.091   1.253   6.461 -0.1284  0.0498 -0.0260
  363POPX   D2A 4350   7.094   1.091   6.001  0.0158  0.3569  0.0410
  363POPX   C3A 4351   7.254   0.799   5.679 -0.0040 -0.1313  0.0962
  363POPX   C4A 4352   7.665   0.576   5.549  0.0809  0.2215 -0.0154
  363POPX   C1B 4353   7.041   0.921   6.732  0.1122 -0.3949 -0.0806
  363POPX   C2B 4354   6.928   0.793   6.344  0.3762 -0.0231  0.2966
  363POPX   C3B 4355   6.793   0.546   5.947  0.0044 -0.3324  0.1850
  363POPX   C4B 4356   6.880   0.586   5.483 -0.3381  0.1217  0.0563
  364POPX   NC3 4357   1.712  17.031   7.865 -0.1919 -0.1568  0.0469
  364POPX   PO4 4358   2.062  17.219   7.867  0.1399 -0.2558  0.0031
  364POPX   GL1 4359   2.283  17.134   7.519  0.1639 -0.1781  0.2574
  364POPX   GL2 4360   2.184  17.290   7.401  0.3489  0.0620  0.0693
  364POPX   C1A 4361   2.371  16.901   7.149  0.0082  0.1196  0.4855
  364POPX   D2A 4362   2.249  17.020   6.612 -0.1903 -0.1146 -0.0555
  364POPX   C3A 4363   2.699  16.979   6.483 -0.3839  0.1298  0.1506
  364POPX   C4A 4364   3.168  17.167   6.606  0.1330 -0.0201 -0.1086
  364POPX   C1B 4365   2.294  17.412   7.064 -0.0950  0.1717 -0.0019
  364POPX   C2B 4366   2.340  17.526   6.700 -0.1077  0.0024 -0.0849
  364POPX   C3B 4367   2.324  17.725   6.281  0.3503 -0.3046 -0.0394
  364POPX   C4B 4368   2.275  18.118   5.979  0.0922 -0.1648  0.1159
  365POPX   NC3 4369   0.798   1.619   7.366  0.0601 -0.1663  0.0234
  365POPX   PO4 4370   0.731   1.217   7.336 -0.0402  0.0019  0.4157
  365POPX   GL1 4371   0.543   0.996   7.052 -0.0944  0.2528 -0.2230
  365POPX   GL2 4372   0.753   0.776   6.977 -0.1669 -0.2068 -0.0243
  365POPX   C1A 4373   0.536   1.111   6.629  0.1825 -0.0370 -0.1227
  365POPX   D2A 4374   0.503   1.174   6.119 -0.3888 -0.1124  0.0647
  365POPX   C3A 4375   0.677   0.958   5.783  0.1305  0.3878 -0.1702
  365POPX   C4A 4376   0.723   0.924   5.261  0.1073 -0.3282 -0.0143
  365POPX   C1B 4377   0.684   0.672   6.604  0.0160 -0.0050 -0.5802
  365POPX   C2B 4378   0.744   0.685   6.219  0.2828 -0.0850 -0.2744
  365POPX   C3B 4379   0.828   0.431   5.807  0.2629 -0.2175 -0.1876
  365POPX   C4B 4380   0.935   0.473   5.341 -0.0722 -0.0831  0.0532
  366POPX   NC3 4381   2.205   8.035   7.806  0.0721 -0.2185  0.1613
  366POPX   PO4 4382   2.529   7.820   7.669  0.0797 -0.2135  0.2868
  366POPX   GL1 4383   2.807   7.841   7.339 -0.3069 -0.1395  0.4017
  366POPX   GL2 4384   2.924   8.085   7.324 -0.2695 -0.1159  0.3127
  366POPX   C1A 4385   2.803   7.770   6.881 -0.1895 -0.0848 -0.4366
  366POPX   D2A 4386   2.791   7.691   6.348 -0.1237  0.1071 -0.0029
  366POPX   C3A 4387   2.456   7.407   6.221 -0.0677 -0.1093 -0.1217
  366POPX   C4A 4388   2.448   7.098   5.811 -0.1145 -0.1027 -0.2133
  366POPX   C1B 4389   2.854   8.197   6.975  0.0420  0.3349 -0.2918
  366POPX   C2B 4390   2.747   8.181   6.564 -0.3851 -0.1474 -0.2981
  366POPX   C3B 4391   2.565   8.145   6.119 -0.1564 -0.3483  0.0134
  366POPX   C4B 4392   2.285   8.178   5.726 -0.2302 -0.2423 -0.0386
  367POPX   NC3 4393  13.963  18.691   7.513  0.0862 -0.0299 -0.1521
  367POPX   PO4 4394  13.849  19.050   7.596 -0.1710  0.1013 -0.1231
  367POPX   GL1 4395  14.017  19.087   7.267  0.2077 -0.1642 -0.1638
  367POPX   GL2 4396  14.115  19.249   7.161 -0.1036  0.3363 -0.2244
  367POPX   C1A 4397  14.162  18.758   7.004 -0.2074 -0.1813 -0.0449
  367POPX   D2A 4398  14.030  18.733   6.525 -0.0143 -0.0023 -0.0128
  367POPX   C3A 4399  13.897  18.607   6.085  0.1311  0.3035  0.0967
  367POPX   C4A 4400  14.052  18.663   5.654 -0.1897  0.0972  0.0812
  367POPX   C1B 4401  14.000  19.209   6.801 -0.3087 -0.1658 -0.0596
  367POPX   C2B 4402  14.022  19.203   6.360 -0.0145  0.0522 -0.2173
  367POPX   C3B 4403  14.051  19.069   5.954 -0.0060 -0.2327 -0.0289
  367POPX   C4B 4404  14.035  19.093   5.440 -0.3638  0.0028 -0.2153
  368POPX   NC3 4405  12.443   2.009   8.125  0.1169  0.3149 -0.1145
  368POPX   PO4 4406  12.154   1.984   7.832  0.0315  0.3360  0.1781
  368POPX   GL1 4407  12.072   1.931   7.474  0.1815 -0.0066 -0.1440
  368POPX   GL2 4408  12.160   2.202   7.382  0.0615  0.0190 -0.0902
  368POPX   C1A 4409  12.151   1.677   7.128 -0.1336 -0.1805  0.2549
  368POPX   D2A 4410  12.332   1.389   6.715  0.0539 -0.0814  0.2818
  368POPX   C3A 4411  12.334   1.455   6.247 -0.2345 -0.0781 -0.0687
  368POPX   C4A 4412  12.263   1.526   5.797 -0.0015 -0.0173  0.0609
  368POPX   C1B 4413  12.279   2.212   7.076  0.2800  0.1920  0.2096
  368POPX   C2B 4414  12.260   2.029   6.673 -0.0937 -0.5087  0.0296
  368POPX   C3B 4415  12.231   1.930   6.164  0.0923 -0.0064  0.0501
  368POPX   C4B 4416  12.263   2.084   5.747  0.1315  0.1507  0.2010
  369POPX   NC3 4417   3.233   5.983   7.678 -0.3535  0.1513 -0.0372
  369POPX   PO4 4418   3.121   5.676   7.855 -0.1494 -0.2441 -0.0069
  369POPX   GL1 4419   2.712   5.828   7.720 -0.2432 -0.0515  0.0887
  369POPX   GL2 4420   2.871   5.738   7.437  0.1058 -0.3943 -0.3278
  369POPX   C1A 4421   2.374   6.119   7.611  0.1339 -0.2196 -0.0846
  369POPX   D2A 4422   1.941   6.133   7.324 -0.2010  0.0623  0.1372
  369POPX   C3A 4423   1.525   5.925   7.421  0.0151 -0.0105 -0.1031
  369POPX   C4A 4424   1.091   6.021   7.284  0.1980  0.1279 -0.1421
  369POPX   C1B 4425   2.748   6.004   7.242  0.1645  0.0361 -0.1481
  369POPX   C2B 4426   2.485   6.268   7.062 -0.3316 -0.2494  0.0035
  369POPX   C3B 4427   2.121   6.326   6.771  0.1388 -0.0811 -0.2134
  369POPX   C4B 4428   1.881   6.440   6.406  0.1517 -0.2731  0.3073
  370POPX   NC3 4429  11.609  15.775   7.576  0.4845  0.3238  0.0513
  370POPX   PO4 4430  11.774  16.094   7.701  0.1217 -0.0729  0.0897
  370POPX   GL1 4431  11.783  16.378   7.471  0.0330 -0.0909 -0.5171
  370POPX   GL2 4432  11.494  16.375   7.442  0.0864  0.1660 -0.0204
  370POPX   C1A 4433  12.114  16.310   7.237 -0.4046  0.1685  0.3521
  370POPX   D2A 4434  12.293  16.378   6.765 -0.2501  0.0719  0.0701
  370POPX   C3A 4435  12.385  16.225   6.363  0.2048 -0.1436  0.0637
  370POPX   C4A 4436  12.167  16.232   5.943  0.1343 -0.3843 -0.2307
  370POPX   C1B 4437  11.317  16.442   7.115  0.1617 -0.0120  0.0464
  370POPX   C2B 4438  11.446  16.635   6.785  0.1690 -0.0735 -0.1357
  370POPX   C3B 4439  11.389  16.749   6.323  0.0447  0.3077  0.0708
  370POPX   C4B 4440  11.356  16.788   5.843 -0.0414 -0.3372  0.1782
  371POPX   NC3 4441   7.998   5.043   7.216  0.1350 -0.0312  0.0323
  371POPX   PO4 4442   8.110   4.690   7.190  0.1338 -0.0571  0.0580
  371POPX   GL1 4443   8.101   4.580   6.795  0.0257 -0.1740  0.2876
  371POPX   GL2 4444   8.255   4.817   6.683 -0.1366 -0.0720  0.0724
  371POPX   C1A 4445   8.317   4.385   6.390  0.0804 -0.0851  0.2932
  371POPX   D2A 4446   8.580   4.387   5.983  0.0484  0.0247 -0.1397
  371POPX   C3A 4447   8.486   4.128   5.592 -0.1895 -0.4202 -0.0081
  371POPX   C4A 4448   8.368   4.357   5.217  0.0882  0.0923  0.1536
  371POPX   C1B 4449   8.268   4.897   6.335  0.0154  0.1583 -0.0063
  371POPX   C2B 4450   8.193   4.709   5.922  0.1771 -0.3205  0.0649
  371POPX   C3B 4451   8.032   4.297   5.741  0.1216  0.2893 -0.0693
  371POPX   C4B 4452   7.971   4.012   5.331  0.0328 -0.0399 -0.2486
  372POPX   NC3 4453  26.913   1.081   8.146 -0.0996 -0.0963 -0.2587
  372POPX   PO4 4454  27.094   0.822   7.893 -0.0194 -0.1049  0.0719
  372POPX   GL1 4455  27.150   0.987   7.506  0.0260 -0.4301 -0.1930
  372POPX   GL2 4456  27.007   1.208   7.492  0.1571 -0.2282 -0.2811
  372POPX   C1A 4457  27.166   0.886   7.075 -0.2099  0.3243  0.1287
  372POPX   D2A 4458  27.052   0.982   6.611  0.0787  0.0849 -0.1487
  372POPX   C3A 4459  26.963   1.013   6.145  0.2796 -0.1329 -0.0402
  372POPX   C4A 4460  26.781   0.992   5.695  0.0047 -0.0422  0.0226
  372POPX   C1B 4461  26.905   1.438   7.177  0.1027 -0.0597 -0.2233
  372POPX   C2B 4462  26.883   1.426   6.778  0.2040 -0.0585 -0.4148
  372POPX   C3B 4463  26.751   1.426   6.326 -0.0851 -0.0133 -0.1650
  372POPX   C4B 4464  26.758   1.489   5.868  0.0064 -0.0743  0.2489
  373POPX   NC3 4465  13.118  26.525   8.304 -0.0091  0.1220  0.2028
  373POPX   PO4 4466  12.869  26.264   8.112  0.2144  0.0453 -0.0102
  373POPX   GL1 4467  12.868  26.541   7.825 -0.0869  0.0870 -0.2275
  373POPX   GL2 4468  13.168  26.621   7.858  0.2513  0.3868  0.5691
  373POPX   C1A 4469  12.468  26.752   7.751 -0.2183  0.1471 -0.1786
  373POPX   D2A 4470  12.174  26.937   7.429 -0.0058 -0.0897 -0.0066
  373POPX   C3A 4471  11.713  27.034   7.329 -0.0275 -0.0189 -0.0132
  373POPX   C4A 4472  11.221  26.929   7.184  0.0595  0.1246  0.0554
  373POPX   C1B 4473  13.259  26.615   7.467  0.0464  0.2601  0.2622
  373POPX   C2B 4474  13.352  26.758   7.064  0.0584  0.0759  0.1322
  373POPX   C3B 4475  13.268  26.691   6.564 -0.2152  0.0604  0.1642
  373POPX   C4B 4476  13.308  26.549   6.069  0.3011  0.1470 -0.3875
  374POPX   NC3 4477   3.984   7.277   7.786 -0.2154  0.1085  0.2543
  374POPX   PO4 4478   3.748   6.931   7.876  0.2718 -0.2500  0.4025
  374POPX   GL1 4479   3.441   6.916   7.543 -0.2393  0.1377  0.1563
  374POPX   GL2 4480   3.382   7.211   7.590 -0.0638  0.4419  0.2454
  374POPX   C1A 4481   3.440   7.005   7.065  0.1427 -0.2656 -0.1917
  374POPX   D2A 4482   3.558   7.047   6.555  0.1894 -0.2103  0.1603
  374POPX   C3A 4483   3.408   7.105   6.106  0.2255 -0.3304  0.0610
  374POPX   C4A 4484   3.410   6.890   5.702  0.3588 -0.2903  0.0119
  374POPX   C1B 4485   3.452   7.410   7.284 -0.1274  0.1020  0.2353
  374POPX   C2B 4486   3.605   7.517   6.852 -0.2692 -0.0610 -0.4197
  374POPX   C3B 4487   3.757   7.532   6.451 -0.0753 -0.2419  0.2025
  374POPX   C4B 4488   3.752   7.533   5.967  0.1666 -0.0046 -0.1035
  375PAPC   NC3 4489  23.789  14.082   7.690  0.1245  0.0973 -0.4694
  375PAPC   PO4 4490  23.441  13.821   7.609 -0.0698  0.3047  0.1183
  375PAPC   GL1 4491  23.241  13.809   7.265 -0.1027  0.0666 -0.1076
  375PAPC   GL2 4492  23.478  13.634   7.106  0.0699 -0.1820 -0.1625
  375PAPC   C1A 4493  22.936  13.689   7.128  0.1553  0.3142  0.0063
  375PAPC   D2A 4494  22.704  13.796   6.827  0.0352  0.0108  0.2860
  375PAPC   D3A 4495  22.733  14.274   6.775 -0.1998 -0.3698  0.0815
  375PAPC   D4A 4496  22.902  14.622   6.670  0.1080 -0.0451 -0.3481
  375PAPC   C5A 4497  22.779  14.647   6.206 -0.1086  0.2444  0.1928
  375PAPC   C1B 4498  23.385  13.506   6.781  0.1883 -0.3182 -0.0637
  375PAPC   C2B 4499  23.019  13.421   6.725  0.0884 -0.0485  0.0001
  375PAPC   C3B 4500  22.949  13.409   6.244  0.2858 -0.3245  0.2543
  375PAPC   C4B 4501  22.944  12.989   6.065  0.0512  0.1732 -0.1809
  376PAPC   NC3 4502  22.425  16.338   6.811  0.0079  0.2822  0.0399
  376PAPC   PO4 4503  22.632  16.675   6.751  0.0937 -0.2046  0.1341
  376PAPC   GL1 4504  22.498  16.886   6.504  0.3005 -0.1990 -0.0333
  376PAPC   GL2 4505  22.754  16.824   6.366  0.0965 -0.1043 -0.2501
  376PAPC   C1A 4506  22.382  16.743   6.229 -0.1554  0.0901 -0.0163
  376PAPC   D2A 4507  22.359  16.370   6.128 -0.0185 -0.2512 -0.3238
  376PAPC   D3A 4508  22.588  16.544   5.872 -0.2302 -0.0746 -0.4000
  376PAPC   D4A 4509  22.313  16.617   5.510  0.4440  0.1407 -0.3495
  376PAPC   C5A 4510  22.067  16.356   5.175 -0.2587  0.0625  0.0347
  376PAPC   C1B 4511  22.737  16.973   5.992  0.2057 -0.0347  0.0167
  376PAPC   C2B 4512  22.811  16.981   5.589  0.1260 -0.1663 -0.1646
  376PAPC   C3B 4513  22.909  16.737   5.144 -0.0328 -0.0492  0.2102
  376PAPC   C4B 4514  22.993  16.421   4.749  0.2627 -0.0495 -0.0509
  377PAPC   NC3 4515   2.038   3.741   8.614 -0.0411 -0.2037  0.2994
  377PAPC   PO4 4516   2.078   3.734   8.190 -0.1911 -0.1195 -0.1700
  377PAPC   GL1 4517   2.441   3.740   7.845  0.0352  0.1683  0.1617
  377PAPC   GL2 4518   2.272   3.414   7.781 -0.3841 -0.1257 -0.1587
  377PAPC   C1A 4519   2.593   3.853   7.562 -0.3234 -0.2841  0.2168
  377PAPC   D2A 4520   2.708   3.994   7.232 -0.1092 -0.0771 -0.2362
  377PAPC   D3A 4521   2.746   4.377   7.018 -0.0590  0.0702  0.0147
  377PAPC   D4A 4522   2.845   4.330   6.585 -0.1627  0.1701  0.1841
  377PAPC   C5A 4523   3.280   4.096   6.536 -0.2306  0.0056 -0.1579
  377PAPC   C1B 4524   2.081   3.358   7.449  0.1705 -0.4166 -0.0664
  377PAPC   C2B 4525   2.012   3.325   7.007  0.0393  0.0739 -0.1366
  377PAPC   C3B 4526   2.131   3.363   6.545  0.1414 -0.0809 -0.0755
  377PAPC   C4B 4527   2.191   3.339   6.021 -0.1952 -0.0556 -0.1816
  378PAPC   NC3 4528   9.829   0.627   7.716  0.4787  0.0924 -0.0942
  378PAPC   PO4 4529   9.960   0.512   7.392 -0.2098  0.1923  0.1734
  378PAPC   GL1 4530   9.906   0.643   6.967 -0.0801  0.1528  0.2780
  378PAPC   GL2 4531   9.971   0.768   6.858  0.2174 -0.0539  0.0592
  378PAPC   C1A 4532   9.696   0.405   6.730 -0.1009  0.0875  0.0464
  378PAPC   D2A 4533   9.733   0.336   6.321  0.0653  0.1255  0.4610
  378PAPC   D3A 4534   9.811   0.208   5.920  0.2614 -0.0605  0.0204
  378PAPC   D4A 4535   9.565  -0.207   5.692 -0.2616  0.0699 -0.4068
  378PAPC   C5A 4536   9.139  -0.280   5.957 -0.2457  0.1151 -0.0151
  378PAPC   C1B 4537  10.105   0.625   6.536  0.4998  0.0686  0.0908
  378PAPC   C2B 4538  10.095   0.552   6.129 -0.2124 -0.0819  0.1136
  378PAPC   C3B 4539  10.075   0.741   5.717  0.2129  0.3589  0.2150
  378PAPC   C4B 4540   9.975   1.025   5.344  0.0033  0.0849 -0.0319
  379PAPC   NC3 4541   5.726  12.716   7.338  0.1000  0.1154  0.1422
  379PAPC   PO4 4542   5.434  12.917   7.530  0.3761 -0.1939  0.2509
  379PAPC   GL1 4543   5.326  12.877   7.137 -0.1634  0.1704  0.2322
  379PAPC   GL2 4544   5.540  13.019   7.067  0.4042  0.0667 -0.2526
  379PAPC   C1A 4545   5.093  12.867   6.897  0.5291  0.1214  0.1191
  379PAPC   D2A 4546   5.183  12.732   6.576 -0.1732 -0.2018  0.2642
  379PAPC   D3A 4547   5.047  12.838   6.271 -0.1843  0.3516 -0.0229
  379PAPC   D4A 4548   5.033  12.884   5.826 -0.2434  0.0184  0.3032
  379PAPC   C5A 4549   5.094  13.343   5.746  0.2332  0.0788 -0.1895
  379PAPC   C1B 4550   5.654  12.906   6.726 -0.1539  0.3546 -0.0246
  379PAPC   C2B 4551   5.634  12.962   6.325  0.1635  0.0263 -0.0769
  379PAPC   C3B 4552   5.530  13.101   5.853 -0.0051 -0.1122 -0.0192
  379PAPC   C4B 4553   5.269  12.959   5.400  0.1547 -0.0505 -0.0220
  380PAPC   NC3 4554  19.160   2.508   7.821 -0.0349  0.2808 -0.0400
  380PAPC   PO4 4555  19.154   2.174   7.614 -0.0866  0.0794  0.0839
  380PAPC   GL1 4556  19.265   1.999   7.301  0.3877 -0.1966  0.0800
  380PAPC   GL2 4557  19.061   1.864   7.180 -0.2882  0.1374 -0.4315
  380PAPC   C1A 4558  19.564   2.239   7.202  0.1871 -0.1642 -0.1218
  380PAPC   D2A 4559  19.752   2.529   7.007 -0.0852 -0.0746  0.3277
  380PAPC   D3A 4560  19.768   2.447   6.538  0.2782  0.0848  0.2875
  380PAPC   D4A 4561  19.825   1.995   6.469 -0.0984 -0.1267  0.0172
  380PAPC   C5A 4562  20.133   1.713   6.597 -0.0430  0.0866  0.0641
  380PAPC   C1B 4563  19.059   1.774   6.747  0.0203  0.1492  0.2212
  380PAPC   C2B 4564  19.067   1.687   6.368 -0.1449  0.0686  0.0993
  380PAPC   C3B 4565  18.961   1.652   5.891 -0.2804  0.1427  0.0559
  380PAPC   C4B 4566  18.747   1.556   5.449  0.3869 -0.0883  0.0747
  381PAPC   NC3 4567   4.895   8.994   7.306 -0.2421  0.1421 -0.1077
  381PAPC   PO4 4568   5.230   9.078   7.074 -0.0747 -0.0328 -0.0608
  381PAPC   GL1 4569   5.494   8.790   6.813 -0.0904 -0.1908  0.0116
  381PAPC   GL2 4570   5.285   8.900   6.612 -0.1570  0.0081  0.3116
  381PAPC   C1A 4571   5.895   8.767   6.686  0.0118  0.2740  0.0573
  381PAPC   D2A 4572   6.229   8.650   6.520  0.0460  0.1280  0.2567
  381PAPC   D3A 4573   6.518   8.897   6.221  0.2896 -0.1780 -0.0055
  381PAPC   D4A 4574   6.788   8.526   6.148 -0.3167  0.4916 -0.1306
  381PAPC   C5A 4575   6.766   8.234   5.757  0.3166  0.0409  0.2884
  381PAPC   C1B 4576   5.306   8.600   6.470 -0.2618  0.0620  0.2450
  381PAPC   C2B 4577   5.200   8.275   6.266  0.3550 -0.3087 -0.1931
  381PAPC   C3B 4578   5.124   8.214   5.759 -0.2005 -0.4203 -0.0063
  381PAPC   C4B 4579   5.195   8.217   5.280 -0.0714  0.1626  0.1707
  382PAPC   NC3 4580   8.963  11.313   7.514 -0.1245  0.1447  0.2410
  382PAPC   PO4 4581   8.578  11.370   7.380 -0.2155  0.0990  0.3626
  382PAPC   GL1 4582   8.575  11.250   6.992 -0.0299 -0.1296  0.0079
  382PAPC   GL2 4583   8.461  10.941   7.110  0.2056 -0.0522  0.1088
  382PAPC   C1A 4584   8.540  11.381   6.660 -0.0959 -0.3235 -0.2000
  382PAPC   D2A 4585   8.338  11.063   6.468 -0.0468 -0.1091 -0.3643
  382PAPC   D3A 4586   8.120  11.078   6.089  0.0643  0.2542  0.3184
  382PAPC   D4A 4587   8.338  11.059   5.676  0.3213 -0.0927  0.1801
  382PAPC   C5A 4588   8.125  11.050   5.238 -0.1191 -0.4245  0.0535
  382PAPC   C1B 4589   8.539  10.660   6.820  0.0527 -0.1108  0.0280
  382PAPC   C2B 4590   8.567  10.637   6.364  0.2493  0.0610  0.0821
  382PAPC   C3B 4591   8.700  10.673   5.870 -0.1395 -0.0622 -0.2658
  382PAPC   C4B 4592   8.710  10.476   5.421 -0.1092 -0.0806 -0.0832
  383PAPC   NC3 4593   9.518   6.831   7.035 -0.0549 -0.2186 -0.1292
  383PAPC   PO4 4594   9.522   6.457   7.154  0.0299  0.1038 -0.0653
  383PAPC   GL1 4595   9.792   6.406   6.845  0.0066 -0.3059  0.2376
  383PAPC   GL2 4596   9.951   6.620   6.890 -0.1406 -0.2714  0.0084
  383PAPC   C1A 4597   9.929   6.180   6.600 -0.0479 -0.0719 -0.2694
  383PAPC   D2A 4598  10.055   6.033   6.251  0.0346 -0.2953 -0.0015
  383PAPC   D3A 4599   9.849   6.037   5.839  0.0208 -0.3140 -0.0154
  383PAPC   D4A 4600   9.951   6.250   5.471 -0.2281 -0.2143 -0.1607
  383PAPC   C5A 4601   9.635   6.422   5.233 -0.2374  0.1295  0.1574
  383PAPC   C1B 4602   9.992   6.741   6.562 -0.4336 -0.2398  0.0750
  383PAPC   C2B 4603   9.997   6.533   6.149  0.1090 -0.0014  0.0592
  383PAPC   C3B 4604   9.923   6.804   5.681  0.2905 -0.2071 -0.1896
  383PAPC   C4B 4605   9.633   6.960   5.337  0.2383  0.0196 -0.3769
  384PAPC   NC3 4606  10.811   0.807   7.595 -0.1726 -0.3856 -0.1536
  384PAPC   PO4 4607  10.943   0.462   7.647 -0.0585  0.0373 -0.0489
  384PAPC   GL1 4608  11.096   0.248   7.262  0.1589 -0.1164 -0.0570
  384PAPC   GL2 4609  10.917   0.394   7.103  0.0077  0.1190  0.0765
  384PAPC   C1A 4610  11.402   0.235   7.069 -0.0237  0.0306  0.2212
  384PAPC   D2A 4611  11.749   0.007   6.968  0.0881 -0.0282 -0.3543
  384PAPC   D3A 4612  12.056  -0.256   7.190 -0.0256  0.0356  0.3107
  384PAPC   D4A 4613  12.470  -0.185   7.344  0.0891  0.2671 -0.4014
  384PAPC   C5A 4614  12.658   0.020   6.994  0.0174  0.0839  0.5120
  384PAPC   C1B 4615  11.103   0.352   6.789  0.0190 -0.1284  0.0492
  384PAPC   C2B 4616  11.428   0.139   6.585  0.1510  0.1231 -0.1539
  384PAPC   C3B 4617  11.847  -0.046   6.406 -0.0832 -0.3799 -0.0523
  384PAPC   C4B 4618  12.201  -0.254   6.107 -0.1088  0.0946  0.0925
  385PAPC   NC3 4619  21.721  21.004   7.141  0.1157  0.0397  0.1583
  385PAPC   PO4 4620  22.016  21.167   7.364  0.1823 -0.0929 -0.0949
  385PAPC   GL1 4621  22.209  21.424   6.972  0.1846 -0.2077  0.1235
  385PAPC   GL2 4622  22.027  21.256   6.841  0.3100 -0.0057  0.1787
  385PAPC   C1A 4623  22.327  21.701   6.755  0.0601 -0.0988  0.1479
  385PAPC   D2A 4624  22.369  22.005   6.476 -0.0250  0.2980 -0.1717
  385PAPC   D3A 4625  22.254  22.081   6.099  0.3261  0.1889  0.1867
  385PAPC   D4A 4626  22.455  22.101   5.652 -0.2021 -0.1353 -0.3571
  385PAPC   C5A 4627  22.160  22.505   5.618 -0.2687  0.4683  0.1543
  385PAPC   C1B 4628  22.049  21.186   6.510  0.3043  0.1042 -0.1405
  385PAPC   C2B 4629  21.754  21.397   6.278 -0.1115  0.0747  0.0162
  385PAPC   C3B 4630  21.813  21.747   5.885  0.3651 -0.0949  0.1024
  385PAPC   C4B 4631  21.957  22.043   5.488  0.0320  0.1549  0.1051
  386PAPC   NC3 4632  22.664  19.680   7.216  0.1824 -0.5059  0.1903
  386PAPC   PO4 4633  22.849  20.033   7.322  0.0467 -0.0104 -0.1361
  386PAPC   GL1 4634  22.880  20.255   7.009  0.3913 -0.0194 -0.3589
  386PAPC   GL2 4635  23.042  20.051   6.900 -0.3907  0.1181  0.1989
  386PAPC   C1A 4636  22.819  20.267   6.604  0.1979 -0.2508 -0.3004
  386PAPC   D2A 4637  22.681  20.091   6.302 -0.2923  0.0699 -0.0044
  386PAPC   D3A 4638  22.744  20.239   5.913  0.1441  0.3598  0.3125
  386PAPC   D4A 4639  22.984  20.555   5.986  0.2687 -0.2143  0.3591
  386PAPC   C5A 4640  22.487  20.698   5.992 -0.0105  0.2156  0.2541
  386PAPC   C1B 4641  23.047  19.916   6.555 -0.0125  0.1385 -0.0713
  386PAPC   C2B 4642  22.958  19.701   6.223 -0.0454 -0.0070 -0.0408
  386PAPC   C3B 4643  23.108  19.408   5.852 -0.1719 -0.1108 -0.0972
  386PAPC   C4B 4644  22.823  19.264   5.511 -0.2467  0.3014 -0.1055
  387PAPC   NC3 4645   2.272  14.999   7.671 -0.2823  0.2745  0.1459
  387PAPC   PO4 4646   2.146  15.329   7.752  0.2564  0.0724  0.1687
  387PAPC   GL1 4647   1.860  15.376   7.398 -0.0110  0.0464 -0.0613
  387PAPC   GL2 4648   2.041  15.531   7.286  0.2461  0.4211  0.1341
  387PAPC   C1A 4649   1.800  15.074   7.211  0.0413 -0.1768  0.2045
  387PAPC   D2A 4650   2.079  14.986   6.872 -0.0286 -0.0690  0.0588
  387PAPC   D3A 4651   2.380  15.146   7.194 -0.0050 -0.1210 -0.0002
  387PAPC   D4A 4652   2.782  15.322   7.226 -0.3000 -0.0026 -0.3466
  387PAPC   C5A 4653   2.777  15.135   6.777 -0.2986 -0.0077  0.2448
  387PAPC   C1B 4654   2.168  15.561   6.962 -0.1136 -0.2917  0.1421
  387PAPC   C2B 4655   2.235  15.691   6.584  0.2546 -0.0669 -0.1533
  387PAPC   C3B 4656   2.184  15.826   6.105 -0.1059  0.0366  0.1934
  387PAPC   C4B 4657   2.136  15.701   5.643  0.0686  0.1379  0.0307
  388PAPC   NC3 4658   6.089   6.947   7.070 -0.2351 -0.0385  0.1231
  388PAPC   PO4 4659   6.327   7.248   7.107  0.0645 -0.0621 -0.3714
  388PAPC   GL1 4660   6.084   7.383   6.770  0.3653  0.0275 -0.2136
  388PAPC   GL2 4661   5.996   7.059   6.652 -0.5287 -0.1656 -0.1338
  388PAPC   C1A 4662   5.867   7.707   6.669 -0.0137 -0.1257 -0.4132
  388PAPC   D2A 4663   5.751   7.543   6.347  0.1319  0.0180  0.0325
  388PAPC   D3A 4664   5.821   7.387   5.892  0.3180 -0.1836  0.1072
  388PAPC   D4A 4665   5.735   7.284   5.446  0.1572  0.0950 -0.2699
  388PAPC   C5A 4666   5.310   7.351   5.255 -0.1129  0.0947 -0.0143
  388PAPC   C1B 4667   5.809   7.023   6.369  0.1445 -0.2619  0.0427
  388PAPC   C2B 4668   5.683   6.911   5.942 -0.0602  0.1441 -0.0818
  388PAPC   C3B 4669   5.529   6.849   5.523 -0.3078  0.1258 -0.1864
  388PAPC   C4B 4670   5.581   6.799   5.051 -0.0463 -0.0687 -0.1205
  389PAPC   NC3 4671   9.694   9.200   7.399 -0.1908  0.2026 -0.1552
  389PAPC   PO4 4672   9.323   9.279   7.479 -0.1341  0.1874  0.4149
  389PAPC   GL1 4673   9.226   9.455   7.098 -0.1773  0.4823  0.3291
  389PAPC   GL2 4674   9.400   9.266   6.938 -0.2716 -0.3209 -0.1474
  389PAPC   C1A 4675   9.049   9.728   6.847 -0.3118  0.2302 -0.0432
  389PAPC   D2A 4676   9.156  10.175   6.751  0.2309 -0.1465  0.1492
  389PAPC   D3A 4677   9.203  10.048   6.364 -0.0228  0.0023  0.3295
  389PAPC   D4A 4678   9.499   9.930   5.958  0.0100  0.1148 -0.2277
  389PAPC   C5A 4679   9.481  10.138   5.558 -0.1475 -0.2636  0.0034
  389PAPC   C1B 4680   9.598   9.416   6.602  0.1203 -0.0069 -0.3268
  389PAPC   C2B 4681   9.778   9.524   6.225 -0.1024  0.0145 -0.1238
  389PAPC   C3B 4682   9.976   9.646   5.768  0.2153 -0.0478 -0.0869
  389PAPC   C4B 4683  10.149  10.014   5.511 -0.0258  0.2142 -0.1926
  390PAPC   NC3 4684  18.397   7.835   7.047  0.3228  0.1709  0.0162
  390PAPC   PO4 4685  18.533   8.165   7.242 -0.1281 -0.1490 -0.1223
  390PAPC   GL1 4686  18.659   8.338   6.891  0.0681  0.0744  0.3175
  390PAPC   GL2 4687  18.592   8.109   6.746  0.3079  0.1884  0.1232
  390PAPC   C1A 4688  18.884   8.564   6.712 -0.2073 -0.1207 -0.1097
  390PAPC   D2A 4689  19.151   8.819   6.639 -0.1906  0.1778 -0.1054
  390PAPC   D3A 4690  19.224   8.983   6.211  0.1248  0.0359 -0.0502
  390PAPC   D4A 4691  19.516   8.902   5.886 -0.1728  0.1547  0.2686
  390PAPC   C5A 4692  19.572   8.783   5.453  0.0869 -0.0377  0.0986
  390PAPC   C1B 4693  18.822   8.181   6.505  0.0472 -0.0476  0.0697
  390PAPC   C2B 4694  19.111   8.391   6.296  0.3107  0.0604  0.2852
  390PAPC   C3B 4695  19.110   8.629   5.857  0.1406 -0.0161 -0.1538
  390PAPC   C4B 4696  19.011   8.832   5.395 -0.0126 -0.0266  0.0810
  391PAPC   NC3 4697  18.744  23.357   8.030 -0.1498  0.0641  0.1593
  391PAPC   PO4 4698  18.747  23.453   7.638 -0.0651 -0.3038 -0.0202
  391PAPC   GL1 4699  19.126  23.376   7.483 -0.0737 -0.3725  0.3090
  391PAPC   GL2 4700  19.037  23.510   7.222  0.1222 -0.2374  0.2629
  391PAPC   C1A 4701  19.354  23.096   7.449  0.2867  0.1379  0.2053
  391PAPC   D2A 4702  19.480  22.735   7.538 -0.2653 -0.0193  0.4060
  391PAPC   D3A 4703  19.735  22.438   7.487 -0.3717 -0.1831  0.3789
  391PAPC   D4A 4704  19.991  22.511   7.125 -0.0078  0.2318  0.0938
  391PAPC   C5A 4705  19.829  22.659   6.682 -0.1036  0.5503 -0.0478
  391PAPC   C1B 4706  18.944  23.194   7.069 -0.5478  0.0293 -0.1523
  391PAPC   C2B 4707  18.975  22.979   6.711 -0.2278  0.0627  0.0816
  391PAPC   C3B 4708  19.090  22.899   6.290 -0.0267 -0.0380 -0.3137
  391PAPC   C4B 4709  19.203  22.899   5.818 -0.3159  0.0184 -0.1260
  392PAPC   NC3 4710  13.018   7.001   7.997 -0.1453  0.0097  0.0299
  392PAPC   PO4 4711  13.337   7.258   7.900 -0.0860  0.3397  0.1935
  392PAPC   GL1 4712  13.500   7.435   7.595  0.2470 -0.1886  0.2702
  392PAPC   GL2 4713  13.317   7.694   7.550  0.3722  0.2663  0.0956
  392PAPC   C1A 4714  13.825   7.448   7.434  0.1282  0.2569 -0.2400
  392PAPC   D2A 4715  14.089   7.296   7.183  0.1279 -0.2484 -0.1811
  392PAPC   D3A 4716  14.132   6.915   6.963 -0.0718 -0.0111  0.0515
  392PAPC   D4A 4717  14.262   6.820   6.555 -0.2478  0.2628 -0.0458
  392PAPC   C5A 4718  14.541   7.150   6.267 -0.1052 -0.1276 -0.2381
  392PAPC   C1B 4719  13.227   7.767   7.184  0.0581  0.0101  0.0612
  392PAPC   C2B 4720  13.295   7.906   6.733  0.2691  0.3627  0.0323
  392PAPC   C3B 4721  13.091   7.903   6.276  0.2606 -0.0560 -0.0038
  392PAPC   C4B 4722  13.121   7.701   5.828 -0.0836 -0.0617 -0.3286
  393PAPC   NC3 4723  20.528   7.474   7.018 -0.2165  0.2207  0.1207
  393PAPC   PO4 4724  20.820   7.384   7.283 -0.1214  0.1933 -0.3087
  393PAPC   GL1 4725  21.207   7.482   7.142  0.0139 -0.4135 -0.1130
  393PAPC   GL2 4726  21.011   7.749   7.014 -0.2813  0.0360 -0.3227
  393PAPC   C1A 4727  21.358   7.360   6.863 -0.3059 -0.2890 -0.4893
  393PAPC   D2A 4728  21.555   7.487   6.491 -0.0593 -0.3910 -0.0638
  393PAPC   D3A 4729  21.654   7.207   6.250 -0.1504 -0.3498  0.0948
  393PAPC   D4A 4730  21.578   6.898   5.890  0.2043 -0.0791  0.0728
  393PAPC   C5A 4731  21.911   7.144   5.536  0.0039  0.1372  0.0910
  393PAPC   C1B 4732  21.022   7.566   6.701  0.0715 -0.1766  0.1508
  393PAPC   C2B 4733  21.088   7.670   6.269  0.1771  0.3137 -0.1582
  393PAPC   C3B 4734  21.316   7.698   5.830  0.1439  0.1781  0.3957
  393PAPC   C4B 4735  21.760   7.453   5.857 -0.0272  0.1659  0.1049
  394PAPC   NC3 4736  22.580   5.065   7.780  0.1131  0.3503 -0.0294
  394PAPC   PO4 4737  22.858   4.789   7.805 -0.1119 -0.1410  0.1287
  394PAPC   GL1 4738  22.937   4.846   7.441  0.3333 -0.0441  0.2013
  394PAPC   GL2 4739  22.792   5.089   7.357  0.0464 -0.0458 -0.1357
  394PAPC   C1A 4740  23.150   4.766   7.132 -0.0182 -0.1023  0.6080
  394PAPC   D2A 4741  23.370   4.546   6.923 -0.2990 -0.2109  0.0606
  394PAPC   D3A 4742  23.221   4.594   6.501 -0.1005  0.0512  0.1088
  394PAPC   D4A 4743  23.259   4.622   6.101  0.0529  0.0648  0.1172
  394PAPC   C5A 4744  23.270   4.410   5.650 -0.0073 -0.1008 -0.3245
  394PAPC   C1B 4745  22.851   5.081   6.974  0.3561 -0.1593 -0.2217
  394PAPC   C2B 4746  23.032   5.058   6.599  0.1863  0.1032 -0.2534
  394PAPC   C3B 4747  23.186   5.138   6.215 -0.0056 -0.0159 -0.3694
  394PAPC   C4B 4748  23.533   5.349   5.895 -0.0018 -0.2590  0.0753
  395PAPC   NC3 4749  23.595  21.607   7.275 -0.1350 -0.1850  0.0561
  395PAPC   PO4 4750  23.450  21.352   7.031  0.1177 -0.0249  0.1368
  395PAPC   GL1 4751  23.609  21.325   6.592 -0.0305 -0.3540  0.0539
  395PAPC   GL2 4752  23.395  21.551   6.601 -0.0152 -0.0707 -0.2097
  395PAPC   C1A 4753  23.858  21.257   6.320  0.0095  0.1149  0.3463
  395PAPC   D2A 4754  23.789  21.291   5.910  0.2177  0.1857  0.2679
  395PAPC   D3A 4755  23.516  21.011   5.601  0.0224  0.0883 -0.3655
  395PAPC   D4A 4756  23.089  21.148   5.422  0.5029 -0.3764  0.0760
  395PAPC   C5A 4757  22.753  20.818   5.423 -0.0494 -0.0705  0.1506
  395PAPC   C1B 4758  23.164  21.538   6.347  0.4513 -0.3402 -0.0147
  395PAPC   C2B 4759  23.035  21.583   5.951  0.2407 -0.1202  0.0638
  395PAPC   C3B 4760  22.808  21.547   5.498  0.2657 -0.1923 -0.1362
  395PAPC   C4B 4761  22.610  21.304   5.109 -0.0617 -0.0276  0.1573
  396PAPC   NC3 4762   8.564   4.586   6.947 -0.0782 -0.3723  0.1794
  396PAPC   PO4 4763   8.736   4.280   7.100 -0.0619 -0.0617 -0.1579
  396PAPC   GL1 4764   8.922   4.119   6.779 -0.4249 -0.0330  0.0091
  396PAPC   GL2 4765   8.679   4.171   6.679  0.0074  0.0729  0.0169
  396PAPC   C1A 4766   9.059   3.879   6.528  0.4163  0.2530  0.0304
  396PAPC   D2A 4767   8.965   3.508   6.340  0.0114  0.0351  0.1030
  396PAPC   D3A 4768   9.055   3.459   5.927  0.3425 -0.2165  0.0940
  396PAPC   D4A 4769   9.009   3.464   5.501 -0.1035  0.3186  0.0405
  396PAPC   C5A 4770   8.708   3.387   5.184 -0.3206 -0.0507 -0.1518
  396PAPC   C1B 4771   8.816   4.256   6.364  0.5710 -0.1584 -0.0810
  396PAPC   C2B 4772   8.831   3.957   6.056  0.0334 -0.1963  0.1071
  396PAPC   C3B 4773   9.191   3.951   5.706  0.1789  0.0858 -0.0069
  396PAPC   C4B 4774   9.317   3.926   5.266  0.1666  0.4176 -0.3855
  397PAPC   NC3 4775  26.464   4.120   7.896 -0.0850  0.0009  0.0920
  397PAPC   PO4 4776  26.724   3.782   7.987  0.2034  0.2496 -0.2360
  397PAPC   GL1 4777  26.519   3.654   7.657  0.2987 -0.0571 -0.2640
  397PAPC   GL2 4778  26.603   3.900   7.490  0.6813 -0.1337 -0.3740
  397PAPC   C1A 4779  26.580   3.318   7.556 -0.1598  0.2015  0.1986
  397PAPC   D2A 4780  26.525   3.141   7.207 -0.2532  0.1331 -0.0209
  397PAPC   D3A 4781  26.518   3.489   6.910  0.0604  0.2111 -0.1321
  397PAPC   D4A 4782  26.768   3.817   6.772  0.1099 -0.0607  0.1005
  397PAPC   C5A 4783  26.836   3.633   7.231 -0.1573  0.1631 -0.2893
  397PAPC   C1B 4784  26.513   3.920   7.161 -0.0790  0.3174  0.2066
  397PAPC   C2B 4785  26.317   3.996   6.732 -0.3263  0.2099  0.0214
  397PAPC   C3B 4786  26.406   3.882   6.272 -0.2550  0.0452 -0.0449
  397PAPC   C4B 4787  26.649   3.679   5.898  0.1018  0.2086  0.0127
  398PAPC   NC3 4788   3.615   4.125   7.688  0.3856 -0.0347  0.1335
  398PAPC   PO4 4789   3.954   4.348   7.701 -0.1458 -0.2228  0.1576
  398PAPC   GL1 4790   3.994   4.289   7.317  0.2208 -0.4230  0.0887
  398PAPC   GL2 4791   4.227   4.275   7.191 -0.1104 -0.3093 -0.0464
  398PAPC   C1A 4792   3.710   4.128   7.172 -0.0775 -0.1454  0.0184
  398PAPC   D2A 4793   3.305   4.125   7.023 -0.2790  0.1476  0.0832
  398PAPC   D3A 4794   3.199   4.520   6.840 -0.0411 -0.0227 -0.1017
  398PAPC   D4A 4795   3.226   4.677   6.430  0.2639  0.3400 -0.1154
  398PAPC   C5A 4796   3.567   4.814   6.105  0.1234 -0.0648  0.1206
  398PAPC   C1B 4797   4.209   4.364   6.832 -0.0365  0.1067  0.2854
  398PAPC   C2B 4798   4.185   4.385   6.494  0.0921  0.2161 -0.2037
  398PAPC   C3B 4799   4.119   4.216   6.089 -0.4234  0.0584 -0.0434
  398PAPC   C4B 4800   4.408   4.329   5.717 -0.0536 -0.3185 -0.0402
  399PAPC   NC3 4801   7.539  25.438   7.657  0.0467 -0.4842 -0.2713
  399PAPC   PO4 4802   7.721  25.136   7.836  0.0032 -0.0184  0.0491
  399PAPC   GL1 4803   7.673  24.976   7.537  0.1352 -0.4088 -0.5281
  399PAPC   GL2 4804   7.806  24.721   7.442 -0.2279 -0.4933  0.2065
  399PAPC   C1A 4805   7.560  25.078   7.224 -0.2042  0.1069 -0.2778
  399PAPC   D2A 4806   7.398  25.012   6.852 -0.1889  0.0114  0.1851
  399PAPC   D3A 4807   7.450  24.847   6.409 -0.0101  0.1497 -0.1823
  399PAPC   D4A 4808   7.191  24.724   6.094 -0.0991 -0.0604  0.1963
  399PAPC   C5A 4809   6.887  24.855   5.747  0.0508 -0.1466  0.1493
  399PAPC   C1B 4810   8.157  24.644   7.305 -0.1215 -0.2313 -0.2491
  399PAPC   C2B 4811   8.383  24.628   6.964  0.1907  0.2531 -0.2830
  399PAPC   C3B 4812   8.169  24.504   6.540  0.0102  0.1100 -0.0960
  399PAPC   C4B 4813   7.903  24.554   6.134  0.4133  0.3555 -0.2045
  400PAPC   NC3 4814  14.232  15.075   8.404 -0.2334 -0.1862  0.1009
  400PAPC   PO4 4815  14.254  15.004   8.053 -0.1124 -0.3284  0.2978
  400PAPC   GL1 4816  14.145  14.662   7.597 -0.2120 -0.2960 -0.0691
  400PAPC   GL2 4817  13.993  14.815   7.642  0.2113 -0.1132  0.1463
  400PAPC   C1A 4818  14.337  14.762   7.318 -0.1129 -0.0698 -0.0093
  400PAPC   D2A 4819  14.724  14.856   7.202 -0.1913  0.1970 -0.1359
  400PAPC   D3A 4820  14.931  14.604   6.936 -0.3453 -0.1209  0.0910
  400PAPC   D4A 4821  14.874  14.649   6.523 -0.2150 -0.1803 -0.1026
  400PAPC   C5A 4822  14.893  14.693   6.026 -0.5633 -0.2548 -0.2943
  400PAPC   C1B 4823  14.028  15.058   7.331 -0.3213 -0.1987  0.1880
  400PAPC   C2B 4824  14.342  15.121   7.053  0.1099  0.1424 -0.4333
  400PAPC   C3B 4825  14.462  14.962   6.639 -0.0430 -0.3254  0.0560
  400PAPC   C4B 4826  14.516  15.069   6.171  0.4763 -0.3889  0.5121
  401PAPC   NC3 4827  25.419  11.589   8.522  0.2790  0.2041 -0.0927
  401PAPC   PO4 4828  25.357  11.753   8.154  0.0842 -0.0437 -0.4350
  401PAPC   GL1 4829  25.460  11.912   7.737 -0.1947  0.3674  0.0473
  401PAPC   GL2 4830  25.451  11.646   7.599 -0.0561  0.0297 -0.1495
  401PAPC   C1A 4831  25.245  12.135   7.461  0.0653  0.3135  0.2148
  401PAPC   D2A 4832  24.958  12.417   7.453  0.0184 -0.0183  0.3296
  401PAPC   D3A 4833  24.739  12.236   7.179 -0.4212  0.1824 -0.2575
  401PAPC   D4A 4834  24.804  12.656   7.065  0.0927 -0.0758 -0.2879
  401PAPC   C5A 4835  25.114  12.957   6.896 -0.4437 -0.1388 -0.0349
  401PAPC   C1B 4836  25.508  11.688   7.255  0.0135  0.1955  0.1089
  401PAPC   C2B 4837  25.507  11.559   6.852  0.0876 -0.1780  0.3286
  401PAPC   C3B 4838  25.691  11.706   6.367  0.1345 -0.3056  0.2227
  401PAPC   C4B 4839  26.005  11.947   5.997  0.0905 -0.3502 -0.2238
  402PAPC   NC3 4840  25.955  17.316   7.909  0.0053  0.2004  0.0352
  402PAPC   PO4 4841  25.850  17.238   7.556 -0.1854  0.0923  0.3944
  402PAPC   GL1 4842  25.819  17.301   7.132  0.3839 -0.2938 -0.1456
  402PAPC   GL2 4843  25.595  17.089   7.071 -0.2214 -0.0281 -0.1422
  402PAPC   C1A 4844  25.735  17.540   6.909 -0.0073  0.3312  0.2530
  402PAPC   D2A 4845  25.547  17.901   6.822 -0.0570 -0.0563  0.2225
  402PAPC   D3A 4846  25.263  18.175   6.971 -0.1369 -0.2955 -0.3089
  402PAPC   D4A 4847  25.117  18.536   7.212  0.2225 -0.0293 -0.3748
  402PAPC   C5A 4848  25.140  18.984   7.171 -0.4090  0.0929  0.1391
  402PAPC   C1B 4849  25.393  17.307   6.867 -0.0070 -0.0098 -0.1200
  402PAPC   C2B 4850  25.294  17.568   6.563  0.0565  0.1685 -0.1592
  402PAPC   C3B 4851  25.238  17.665   6.089  0.0552 -0.4489  0.0037
  402PAPC   C4B 4852  25.214  17.682   5.601 -0.2421 -0.0805 -0.1126
  403PAPC   NC3 4853   6.028  27.140   7.264 -0.0648  0.1071  0.0742
  403PAPC   PO4 4854   6.122  26.770   7.439  0.2487 -0.0659 -0.3339
  403PAPC   GL1 4855   6.203  26.414   7.096  0.0542 -0.1420  0.0568
  403PAPC   GL2 4856   5.902  26.481   7.146 -0.1455  0.0178 -0.0697
  403PAPC   C1A 4857   6.321  26.337   6.762 -0.4132 -0.1892 -0.0807
  403PAPC   D2A 4858   6.382  26.432   6.443 -0.0896 -0.2602 -0.1701
  403PAPC   D3A 4859   6.363  26.034   6.228  0.4681  0.2062  0.0005
  403PAPC   D4A 4860   6.401  25.794   5.862  0.1211 -0.1045  0.0852
  403PAPC   C5A 4861   6.315  26.019   5.488  0.1401 -0.0695  0.0707
  403PAPC   C1B 4862   5.623  26.291   6.973  0.0299  0.3474  0.1096
  403PAPC   C2B 4863   5.373  25.990   6.827  0.3234  0.1195 -0.0947
  403PAPC   C3B 4864   5.294  25.713   6.471 -0.0939 -0.2355  0.2578
  403PAPC   C4B 4865   5.329  25.455   6.075  0.0708  0.1811  0.1236
  404PAPC   NC3 4866  19.641  20.276   7.528  0.1061 -0.2877  0.0329
  404PAPC   PO4 4867  19.805  19.932   7.567 -0.1808  0.3842 -0.0997
  404PAPC   GL1 4868  20.164  20.102   7.416 -0.2129 -0.1394  0.5475
  404PAPC   GL2 4869  20.133  20.112   7.112 -0.1951  0.1509  0.0573
  404PAPC   C1A 4870  20.427  20.360   7.325 -0.0966 -0.2885 -0.5113
  404PAPC   D2A 4871  20.433  20.628   7.044 -0.0658 -0.1132 -0.1321
  404PAPC   D3A 4872  20.290  20.326   6.713  0.1617 -0.0787 -0.0837
  404PAPC   D4A 4873  20.043  20.425   6.358 -0.1738 -0.0391 -0.2592
  404PAPC   C5A 4874  19.809  20.070   6.052 -0.1438 -0.2614  0.0507
  404PAPC   C1B 4875  19.858  20.067   6.870 -0.3695 -0.1162 -0.1559
  404PAPC   C2B 4876  19.644  20.017   6.541 -0.3977  0.1429  0.3000
  404PAPC   C3B 4877  19.232  19.857   6.235  0.0239  0.0648 -0.0261
  404PAPC   C4B 4878  18.781  19.712   6.375  0.0631 -0.2176 -0.0370
  405PAPC   NC3 4879  14.713  23.764   6.952 -0.0470 -0.0119 -0.2755
  405PAPC   PO4 4880  14.997  23.707   7.260 -0.0986 -0.1196 -0.1191
  405PAPC   GL1 4881  15.142  23.366   7.081  0.1251 -0.0315  0.1273
  405PAPC   GL2 4882  15.418  23.288   7.095 -0.5207  0.2328  0.3144
  405PAPC   C1A 4883  14.993  23.426   6.758 -0.0946  0.1055 -0.1640
  405PAPC   D2A 4884  14.817  23.511   6.489  0.2336 -0.0716 -0.0861
  405PAPC   D3A 4885  14.845  23.681   6.045 -0.2645 -0.1750  0.0049
  405PAPC   D4A 4886  14.719  23.883   5.656  0.1491 -0.1170  0.3356
  405PAPC   C5A 4887  14.698  24.344   5.507 -0.3478  0.2561  0.2507
  405PAPC   C1B 4888  15.494  23.320   6.682  0.4592 -0.4896 -0.4861
  405PAPC   C2B 4889  15.619  23.322   6.287  0.3874  0.0902 -0.1571
  405PAPC   C3B 4890  15.476  23.447   5.832 -0.2616  0.3712 -0.2099
  405PAPC   C4B 4891  15.420  23.758   5.458 -0.2533 -0.0097 -0.1036
  406PAPC   NC3 4892  17.337   6.816   7.241 -0.0372 -0.0735 -0.0592
  406PAPC   PO4 4893  17.066   7.048   7.030 -0.2180  0.0310  0.3421
  406PAPC   GL1 4894  16.955   6.978   6.619 -0.1602  0.4015  0.2352
  406PAPC   GL2 4895  16.895   6.664   6.635 -0.0684  0.1979 -0.0980
  406PAPC   C1A 4896  16.934   7.016   6.208 -0.0123 -0.2735  0.0043
  406PAPC   D2A 4897  16.825   7.180   5.890 -0.2233  0.1276 -0.0220
  406PAPC   D3A 4898  16.482   7.171   5.682  0.0079  0.1334  0.2949
  406PAPC   D4A 4899  16.109   7.115   5.431  0.0285  0.1844 -0.3490
  406PAPC   C5A 4900  15.936   6.913   5.049  0.3241 -0.0192 -0.1925
  406PAPC   C1B 4901  16.710   6.607   6.275 -0.1860 -0.7173 -0.3662
  406PAPC   C2B 4902  16.650   6.665   5.834  0.0806  0.1799 -0.0069
  406PAPC   C3B 4903  16.601   6.800   5.356  0.3123  0.2077 -0.1936
  406PAPC   C4B 4904  16.424   7.073   5.024  0.1758 -0.3000 -0.1871
  407PAPC   NC3 4905   7.975  11.748   7.086 -0.3605 -0.1165  0.1517
  407PAPC   PO4 4906   7.678  11.979   7.066  0.0706  0.3130 -0.1765
  407PAPC   GL1 4907   7.483  12.057   6.731 -0.0986  0.0209  0.1202
  407PAPC   GL2 4908   7.670  12.136   6.596  0.5137 -0.0519 -0.1517
  407PAPC   C1A 4909   7.149  11.902   6.576 -0.1220  0.1076 -0.4542
  407PAPC   D2A 4910   7.002  11.563   6.517  0.0521  0.1422 -0.0070
  407PAPC   D3A 4911   7.419  11.539   6.727 -0.3064 -0.0534 -0.2716
  407PAPC   D4A 4912   7.537  11.644   6.406  0.0690  0.0151  0.2624
  407PAPC   C5A 4913   7.216  11.871   6.093 -0.1216 -0.0037 -0.0917
  407PAPC   C1B 4914   7.634  12.082   6.181  0.3307  0.4190  0.1439
  407PAPC   C2B 4915   7.641  11.731   5.931 -0.2211 -0.2644  0.0157
  407PAPC   C3B 4916   7.380  11.734   5.501 -0.2153  0.0683 -0.1250
  407PAPC   C4B 4917   7.243  11.626   5.030  0.4670  0.1099 -0.0978
  408PAPC   NC3 4918  25.760  10.304   8.195  0.1326 -0.1976  0.1724
  408PAPC   PO4 4919  25.633  10.568   7.986  0.1028 -0.3415  0.1120
  408PAPC   GL1 4920  25.765  10.589   7.556  0.0598 -0.5037 -0.0296
  408PAPC   GL2 4921  26.004  10.448   7.463  0.0360  0.2581 -0.1566
  408PAPC   C1A 4922  25.495  10.493   7.324 -0.3681 -0.0630 -0.0783
  408PAPC   D2A 4923  25.152  10.527   7.301  0.1967  0.1587 -0.2788
  408PAPC   D3A 4924  24.905  10.587   6.897  0.0134  0.0988  0.1059
  408PAPC   D4A 4925  25.308  10.268   6.918  0.0080  0.0659  0.2199
  408PAPC   C5A 4926  25.672  10.076   6.665  0.0240  0.0977 -0.0523
  408PAPC   C1B 4927  26.150  10.713   7.253 -0.2885  0.3032  0.3055
  408PAPC   C2B 4928  26.347  10.676   6.885  0.0115  0.0319  0.3088
  408PAPC   C3B 4929  26.425  10.515   6.418 -0.0573 -0.0610  0.0345
  408PAPC   C4B 4930  26.483  10.605   5.936 -0.2151 -0.0069 -0.2151
  409PAPC   NC3 4931  20.915  23.258   7.649  0.3191  0.2091 -0.1190
  409PAPC   PO4 4932  21.272  23.155   7.643 -0.1967 -0.0160 -0.0397
  409PAPC   GL1 4933  21.420  23.398   7.275  0.0330  0.0430  0.0871
  409PAPC   GL2 4934  21.105  23.459   7.271 -0.0151  0.4436  0.2467
  409PAPC   C1A 4935  21.605  23.348   6.962 -0.3654  0.1966 -0.0634
  409PAPC   D2A 4936  21.325  23.187   6.733  0.0745 -0.1535 -0.3419
  409PAPC   D3A 4937  21.294  22.900   6.421 -0.1021  0.0237  0.0503
  409PAPC   D4A 4938  21.033  22.665   6.135  0.1702  0.1373 -0.0615
  409PAPC   C5A 4939  20.704  22.857   5.776 -0.0681 -0.0031 -0.1740
  409PAPC   C1B 4940  20.999  23.449   6.945  0.3823 -0.0023  0.0163
  409PAPC   C2B 4941  20.840  23.479   6.548 -0.1922  0.1927 -0.3290
  409PAPC   C3B 4942  20.985  23.570   6.098  0.0713 -0.3444  0.3315
  409PAPC   C4B 4943  20.989  23.557   5.637  0.3059 -0.1495 -0.0822
  410PAPC   NC3 4944   7.869   7.706   7.447 -0.1181  0.3424  0.2120
  410PAPC   PO4 4945   8.167   7.439   7.523 -0.2866 -0.2157 -0.3213
  410PAPC   GL1 4946   8.405   7.408   7.132 -0.0457 -0.1396  0.1009
  410PAPC   GL2 4947   8.097   7.410   7.099  0.2258 -0.2097 -0.2121
  410PAPC   C1A 4948   8.667   7.220   7.030  0.1973  0.0403 -0.3532
  410PAPC   D2A 4949   9.086   7.185   7.115  0.1560  0.1914 -0.4324
  410PAPC   D3A 4950   9.157   6.968   6.751  0.3215  0.0705  0.0973
  410PAPC   D4A 4951   9.144   6.558   6.642  0.1301 -0.0187 -0.4130
  410PAPC   C5A 4952   9.585   6.552   6.467  0.0722  0.2003 -0.0329
  410PAPC   C1B 4953   8.007   7.535   6.737  0.5526  0.0212 -0.0539
  410PAPC   C2B 4954   7.991   7.634   6.354 -0.0493  0.0257 -0.3597
  410PAPC   C3B 4955   8.133   7.802   5.923 -0.3121 -0.0017 -0.2264
  410PAPC   C4B 4956   8.450   7.604   5.593  0.4637  0.1204 -0.0581
  411PAPC   NC3 4957  13.569   3.351   7.943 -0.0195  0.1309 -0.2178
  411PAPC   PO4 4958  13.789   3.634   7.772 -0.0786  0.0321  0.0123
  411PAPC   GL1 4959  13.922   3.828   7.378 -0.2130  0.4423  0.1714
  411PAPC   GL2 4960  13.721   3.966   7.337 -0.0229  0.1612 -0.2055
  411PAPC   C1A 4961  14.161   4.032   7.176  0.2615  0.0797 -0.2914
  411PAPC   D2A 4962  14.522   3.936   6.977 -0.2295  0.1387 -0.0039
  411PAPC   D3A 4963  14.783   3.663   6.725 -0.0547 -0.1163 -0.1000
  411PAPC   D4A 4964  14.507   3.621   6.382 -0.0231 -0.0012 -0.1332
  411PAPC   C5A 4965  14.813   3.358   5.996  0.1134 -0.0268 -0.1126
  411PAPC   C1B 4966  13.612   3.962   6.997 -0.0295  0.4436 -0.1029
  411PAPC   C2B 4967  13.793   3.918   6.664  0.1051  0.2847  0.0825
  411PAPC   C3B 4968  13.848   4.129   6.224 -0.1976 -0.1128 -0.2685
  411PAPC   C4B 4969  13.937   4.284   5.765 -0.0588 -0.3674 -0.0693
  412PAPC   NC3 4970  18.933   1.634   7.565 -0.0856  0.0129 -0.1928
  412PAPC   PO4 4971  18.989   1.286   7.741 -0.1073  0.2050  0.0629
  412PAPC   GL1 4972  19.032   1.215   7.352 -0.1236  0.1119 -0.4634
  412PAPC   GL2 4973  18.790   1.120   7.217 -0.1358 -0.4504  0.1209
  412PAPC   C1A 4974  19.169   0.957   7.059  0.2594  0.1958  0.3989
  412PAPC   D2A 4975  19.303   0.666   6.892 -0.1648  0.2666 -0.4077
  412PAPC   D3A 4976  19.664   0.532   6.706  0.0335  0.3466  0.0688
  412PAPC   D4A 4977  19.493   0.123   6.661  0.2616  0.1250  0.0570
  412PAPC   C5A 4978  19.315  -0.317   6.537 -0.1706 -0.1984  0.1721
  412PAPC   C1B 4979  18.791   1.134   6.845  0.1858  0.1004 -0.0592
  412PAPC   C2B 4980  18.795   1.273   6.464  0.1216  0.2994 -0.0475
  412PAPC   C3B 4981  18.870   1.173   6.036  0.0405  0.2128  0.4335
  412PAPC   C4B 4982  19.007   1.073   5.559  0.1225 -0.2326 -0.0571
  413PAPC   NC3 4983   6.780  20.874   8.275 -0.0657 -0.0783 -0.0895
  413PAPC   PO4 4984   6.586  21.122   7.974 -0.0813  0.1026 -0.3079
  413PAPC   GL1 4985   6.639  21.303   7.578 -0.1229 -0.2233  0.1777
  413PAPC   GL2 4986   6.839  21.148   7.566  0.2109  0.0544  0.3546
  413PAPC   C1A 4987   6.551  21.350   7.195 -0.1933  0.1556  0.2027
  413PAPC   D2A 4988   6.669  21.431   6.814  0.1192 -0.2586  0.4951
  413PAPC   D3A 4989   6.474  21.687   6.440  0.2159  0.3091  0.2039
  413PAPC   D4A 4990   6.510  21.317   6.094  0.2409 -0.0237  0.1480
  413PAPC   C5A 4991   6.605  21.274   5.618  0.1752  0.1628 -0.1103
  413PAPC   C1B 4992   6.933  21.071   7.219  0.3021  0.1231  0.2265
  413PAPC   C2B 4993   6.972  21.017   6.802  0.3194 -0.1737  0.1530
  413PAPC   C3B 4994   6.915  21.012   6.322  0.0904 -0.0551 -0.2510
  413PAPC   C4B 4995   6.902  21.007   5.868  0.0131 -0.0407 -0.1169
  414PAPC   NC3 4996  14.667  10.430   7.263  0.0459 -0.1176 -0.2235
  414PAPC   PO4 4997  14.553  10.115   7.482  0.2554  0.2656 -0.0886
  414PAPC   GL1 4998  14.554   9.862   7.264 -0.4554 -0.0061 -0.1807
  414PAPC   GL2 4999  14.813   9.864   7.097 -0.2920  0.1709  0.3347
  414PAPC   C1A 5000  14.197   9.738   7.092 -0.0026 -0.1482  0.3724
  414PAPC   D2A 5001  13.835   9.711   7.005  0.0882  0.1589 -0.0779
  414PAPC   D3A 5002  13.734   9.618   6.583 -0.1991  0.2041  0.0461
  414PAPC   D4A 5003  13.568   9.680   6.188 -0.1668  0.0199 -0.0311
  414PAPC   C5A 5004  13.696   9.814   5.771  0.1827  0.1130  0.1075
  414PAPC   C1B 5005  14.726  10.066   6.796  0.0097  0.3536 -0.0267
  414PAPC   C2B 5006  14.907  10.062   6.439  0.2248 -0.0508 -0.0982
  414PAPC   C3B 5007  14.973   9.780   6.012  0.1573 -0.1396  0.2780
  414PAPC   C4B 5008  15.020   9.509   5.601 -0.2025 -0.3054 -0.0539
  415PAPC   NC3 5009   4.022  10.387   6.951 -0.0994  0.1604 -0.1915
  415PAPC   PO4 5010   3.861  10.393   7.305  0.0949  0.0640 -0.0796
  415PAPC   GL1 5011   3.615  10.102   7.145  0.0268  0.0904 -0.1171
  415PAPC   GL2 5012   3.385  10.075   7.399 -0.4118 -0.4954  0.0133
  415PAPC   C1A 5013   3.486  10.098   6.813  0.0271  0.2090  0.3643
  415PAPC   D2A 5014   3.538  10.213   6.402  0.2989  0.0083 -0.2265
  415PAPC   D3A 5015   3.587  10.414   6.054  0.1126  0.0651 -0.0915
  415PAPC   D4A 5016   3.953  10.251   5.789 -0.0352 -0.4688 -0.0225
  415PAPC   C5A 5017   3.958  10.059   5.333  0.0674  0.2336 -0.0025
  415PAPC   C1B 5018   3.064  10.097   7.514 -0.1574  0.1400 -0.0306
  415PAPC   C2B 5019   2.695  10.139   7.310 -0.1634  0.0058  0.0389
  415PAPC   C3B 5020   2.369   9.903   7.097 -0.0444 -0.0808 -0.1318
  415PAPC   C4B 5021   1.964   9.892   6.777  0.0266  0.0587  0.0985
  416PAPC   NC3 5022   5.809  23.974   8.387  0.2827  0.3709  0.3995
  416PAPC   PO4 5023   5.544  24.179   8.134  0.1831  0.2391 -0.0215
  416PAPC   GL1 5024   5.537  24.503   7.768  0.0998  0.0756  0.2447
  416PAPC   GL2 5025   5.287  24.332   7.705  0.0551 -0.4189 -0.2510
  416PAPC   C1A 5026   5.606  24.562   7.429  0.3113 -0.3148  0.1230
  416PAPC   D2A 5027   5.531  24.451   7.026 -0.0645  0.0925  0.0209
  416PAPC   D3A 5028   5.576  24.512   6.634 -0.1469  0.1746 -0.1266
  416PAPC   D4A 5029   5.370  24.306   6.293  0.0061  0.0629 -0.0617
  416PAPC   C5A 5030   5.011  24.138   6.009  0.0602 -0.0680 -0.3617
  416PAPC   C1B 5031   5.201  24.297   7.331  0.0805 -0.0606 -0.2352
  416PAPC   C2B 5032   5.088  24.273   6.929 -0.0632  0.1962 -0.2548
  416PAPC   C3B 5033   4.908  24.048   6.517  0.1663 -0.0624 -0.1615
  416PAPC   C4B 5034   4.793  23.613   6.363 -0.0842  0.1623  0.0194
  417PAPC   NC3 5035   7.652   8.382   7.218  0.0660 -0.4028  0.0267
  417PAPC   PO4 5036   7.942   8.222   7.418  0.2222  0.0666 -0.0049
  417PAPC   GL1 5037   7.895   8.012   7.078 -0.1176  0.0545 -0.1868
  417PAPC   GL2 5038   8.121   7.977   7.024  0.2496  0.5158  0.2225
  417PAPC   C1A 5039   7.744   7.898   6.721 -0.1706  0.0916 -0.3059
  417PAPC   D2A 5040   7.493   7.829   6.462  0.2758 -0.0842  0.0327
  417PAPC   D3A 5041   7.296   8.209   6.276  0.0291  0.1910  0.0899
  417PAPC   D4A 5042   7.236   8.237   5.808 -0.0887 -0.4348 -0.1702
  417PAPC   C5A 5043   7.371   8.054   5.410 -0.4402 -0.1032 -0.1886
  417PAPC   C1B 5044   8.242   7.911   6.678 -0.6899  0.1070 -0.1349
  417PAPC   C2B 5045   8.432   7.999   6.318  0.3100 -0.0381 -0.0054
  417PAPC   C3B 5046   8.605   8.049   5.893  0.0527 -0.0526  0.1739
  417PAPC   C4B 5047   8.791   7.980   5.469  0.1922 -0.3954  0.4426
  418PAPC   NC3 5048  17.164  26.096   7.829 -0.0157 -0.1069  0.2218
  418PAPC   PO4 5049  17.289  25.714   7.913 -0.1366 -0.2949 -0.3076
  418PAPC   GL1 5050  17.477  25.496   7.656 -0.0405  0.2802 -0.1490
  418PAPC   GL2 5051  17.737  25.451   7.704  0.1777 -0.1794  0.1424
  418PAPC   C1A 5052  17.430  25.336   7.307  0.1496 -0.2697  0.0536
  418PAPC   D2A 5053  17.216  25.478   7.029 -0.3018 -0.2387  0.0741
  418PAPC   D3A 5054  17.205  25.647   6.587  0.0144  0.1379 -0.1076
  418PAPC   D4A 5055  17.412  25.626   6.235  0.1401 -0.0486  0.1272
  418PAPC   C5A 5056  17.767  25.290   6.316  0.0322  0.1600 -0.2353
  418PAPC   C1B 5057  17.843  25.511   7.369  0.2119  0.0393 -0.2843
  418PAPC   C2B 5058  17.684  25.659   6.993 -0.1519 -0.0814  0.0882
  418PAPC   C3B 5059  17.634  25.928   6.586  0.0230  0.0382 -0.0132
  418PAPC   C4B 5060  17.637  26.066   6.113  0.0341  0.2472  0.0004
  419PAPC   NC3 5061   3.188  20.420   7.990 -0.0215 -0.1506  0.3174
  419PAPC   PO4 5062   3.307  20.192   7.650  0.1756 -0.0853 -0.5247
  419PAPC   GL1 5063   3.377  20.209   7.229  0.3032  0.1949 -0.0182
  419PAPC   GL2 5064   3.181  20.422   7.180  0.0881  0.1135  0.2026
  419PAPC   C1A 5065   3.375  19.931   6.971  0.2082  0.2890  0.0423
  419PAPC   D2A 5066   3.554  19.885   6.584  0.3533 -0.3003 -0.1917
  419PAPC   D3A 5067   3.668  20.176   6.173 -0.1985 -0.0140 -0.3872
  419PAPC   D4A 5068   3.976  20.134   5.839  0.0844  0.0708 -0.1251
  419PAPC   C5A 5069   4.230  20.517   5.701  0.1643  0.3213 -0.2232
  419PAPC   C1B 5070   3.202  20.327   6.825 -0.3040  0.0808  0.0407
  419PAPC   C2B 5071   3.217  20.199   6.439 -0.0035 -0.1593 -0.2161
  419PAPC   C3B 5072   3.219  20.260   5.940  0.1562  0.0823  0.0190
  419PAPC   C4B 5073   2.997  19.948   5.517 -0.1585 -0.2145  0.2735
  420PAPC   NC3 5074  11.572  20.704   7.411  0.0932 -0.0709 -0.2417
  420PAPC   PO4 5075  11.384  21.043   7.518 -0.3375  0.3799  0.2069
  420PAPC   GL1 5076  11.313  21.340   7.282 -0.0841 -0.2674 -0.1515
  420PAPC   GL2 5077  11.676  21.362   7.188 -0.1174 -0.1446 -0.3164
  420PAPC   C1A 5078  11.120  21.186   7.052  0.2624  0.3963 -0.2192
  420PAPC   D2A 5079  10.793  20.975   6.939  0.0988  0.0702 -0.0683
  420PAPC   D3A 5080  10.677  21.356   6.721  0.1567 -0.0727 -0.1320
  420PAPC   D4A 5081  10.292  21.625   6.593  0.0122  0.2968 -0.0135
  420PAPC   C5A 5082  10.432  21.530   6.215 -0.1431 -0.0166 -0.3157
  420PAPC   C1B 5083  11.627  21.392   6.850 -0.0807  0.2656  0.0170
  420PAPC   C2B 5084  11.511  21.462   6.429  0.0523  0.0391 -0.1581
  420PAPC   C3B 5085  11.354  21.413   6.003  0.2671  0.1629  0.3089
  420PAPC   C4B 5086  11.144  21.431   5.592  0.2562  0.0622  0.1278
  421PAPC   NC3 5087  15.211   4.859   7.702  0.0723 -0.1695 -0.0988
  421PAPC   PO4 5088  15.314   5.064   7.420 -0.1973  0.0399  0.0575
  421PAPC   GL1 5089  15.348   4.970   7.163 -0.3337 -0.0386  0.2391
  421PAPC   GL2 5090  15.117   4.758   6.995  0.0028 -0.2435 -0.0864
  421PAPC   C1A 5091  15.576   4.932   6.883 -0.1430  0.1131  0.0736
  421PAPC   D2A 5092  16.004   5.043   6.785  0.1662 -0.2673 -0.6183
  421PAPC   D3A 5093  16.192   5.404   6.750  0.0037  0.2017  0.0548
  421PAPC   D4A 5094  15.839   5.691   6.593 -0.1156  0.0755 -0.0007
  421PAPC   C5A 5095  16.157   5.498   6.273  0.1078  0.3340  0.3380
  421PAPC   C1B 5096  15.211   4.853   6.667 -0.1946 -0.1288  0.4121
  421PAPC   C2B 5097  15.235   4.929   6.272 -0.1209  0.2173 -0.0637
  421PAPC   C3B 5098  15.344   4.781   5.846  0.1086  0.1169  0.0793
  421PAPC   C4B 5099  15.617   5.029   5.554  0.0010  0.0572  0.1041
  422PAPC   NC3 5100   7.024   3.117   7.492  0.1732 -0.0199  0.3356
  422PAPC   PO4 5101   6.799   2.808   7.646  0.0001  0.0330 -0.0937
  422PAPC   GL1 5102   6.805   2.634   7.272 -0.0300 -0.1364 -0.1580
  422PAPC   GL2 5103   6.514   2.765   7.253 -0.1951  0.1190  0.0151
  422PAPC   C1A 5104   6.986   2.675   6.953 -0.2981  0.1174 -0.1469
  422PAPC   D2A 5105   7.050   2.623   6.554  0.0335  0.2021 -0.1108
  422PAPC   D3A 5106   6.968   2.846   6.192 -0.0337 -0.1597 -0.4418
  422PAPC   D4A 5107   6.864   2.813   5.755  0.1492 -0.0683  0.0587
  422PAPC   C5A 5108   6.575   2.541   5.400  0.3557 -0.1061  0.0168
  422PAPC   C1B 5109   6.535   2.723   6.883 -0.0702  0.2545  0.3049
  422PAPC   C2B 5110   6.566   2.842   6.506 -0.2625  0.0281  0.3826
  422PAPC   C3B 5111   6.446   2.633   6.072  0.0329  0.3428  0.0343
  422PAPC   C4B 5112   6.205   2.456   5.703 -0.0514  0.2577  0.3021
  423PAPC   NC3 5113   5.180   7.632   7.394  0.0050 -0.0800  0.0841
  423PAPC   PO4 5114   5.133   8.011   7.436 -0.2322  0.0974  0.0979
  423PAPC   GL1 5115   5.353   8.273   7.098  0.1467 -0.2607 -0.1074
  423PAPC   GL2 5116   5.177   8.004   6.969 -0.1341 -0.1352  0.0270
  423PAPC   C1A 5117   5.609   8.228   6.764  0.0083  0.1403  0.0089
  423PAPC   D2A 5118   6.004   8.285   6.747  0.2201 -0.1209 -0.0014
  423PAPC   D3A 5119   5.847   8.079   6.374 -0.0574  0.2896  0.0791
  423PAPC   D4A 5120   5.726   8.421   6.078  0.3094 -0.0990 -0.0084
  423PAPC   C5A 5121   6.049   8.758   6.088 -0.0988 -0.1458 -0.0733
  423PAPC   C1B 5122   4.959   8.048   6.680 -0.2237 -0.0285  0.0872
  423PAPC   C2B 5123   4.767   7.990   6.301  0.0487  0.2337 -0.1091
  423PAPC   C3B 5124   4.629   8.042   5.828  0.0311  0.3049 -0.2098
  423PAPC   C4B 5125   4.717   8.283   5.412 -0.0493  0.0506 -0.0143
  424PAPC   NC3 5126  23.520  16.190   7.296  0.3948 -0.2253  0.1159
  424PAPC   PO4 5127  23.928  16.143   7.347  0.1647 -0.0811 -0.1089
  424PAPC   GL1 5128  24.376  16.157   7.120 -0.1023  0.1175 -0.0973
  424PAPC   GL2 5129  24.147  16.080   6.958  0.1812 -0.1167 -0.1158
  424PAPC   C1A 5130  24.632  15.968   6.928  0.2086 -0.0606 -0.0971
  424PAPC   D2A 5131  24.968  16.027   6.721  0.1510 -0.0265 -0.1997
  424PAPC   D3A 5132  24.858  15.764   6.326  0.3243  0.0641  0.0754
  424PAPC   D4A 5133  24.838  15.671   5.875  0.1462 -0.1194 -0.1198
  424PAPC   C5A 5134  25.117  15.288   5.919  0.0371 -0.0366  0.0547
  424PAPC   C1B 5135  24.100  16.244   6.668  0.0065  0.3014  0.0648
  424PAPC   C2B 5136  24.172  16.400   6.246 -0.0246 -0.3013  0.1457
  424PAPC   C3B 5137  24.495  16.545   5.894  0.2365  0.0848 -0.0065
  424PAPC   C4B 5138  24.728  16.524   5.490  0.0294  0.0093  0.0747
  425PAPC   NC3 5139   9.011  20.762   7.643  0.0999  0.0056 -0.4918
  425PAPC   PO4 5140   8.835  21.101   7.650  0.0210 -0.2426  0.3524
  425PAPC   GL1 5141   8.731  21.226   7.278  0.0183 -0.0203  0.4353
  425PAPC   GL2 5142   8.638  20.932   7.241  0.4286  0.1886  0.2575
  425PAPC   C1A 5143   8.576  21.536   7.122  0.0996  0.4792  0.0841
  425PAPC   D2A 5144   8.276  21.777   7.285  0.0449 -0.0061  0.2366
  425PAPC   D3A 5145   8.132  22.192   7.227  0.3142 -0.3324  0.1985
  425PAPC   D4A 5146   7.901  22.288   6.822  0.3308  0.0733  0.1123
  425PAPC   C5A 5147   7.850  21.941   6.458 -0.0658  0.0667  0.0453
  425PAPC   C1B 5148   8.455  20.940   6.916 -0.0923 -0.0381  0.1605
  425PAPC   C2B 5149   8.305  20.893   6.549 -0.0043  0.0185  0.2321
  425PAPC   C3B 5150   8.369  21.058   6.090  0.2721  0.0579 -0.2855
  425PAPC   C4B 5151   8.454  21.241   5.713 -0.0363  0.3974  0.2165
  426PAPC   NC3 5152  21.362  18.642   7.929 -0.2045  0.0821  0.0521
  426PAPC   PO4 5153  21.002  18.810   7.887 -0.0813  0.2672 -0.1867
  426PAPC   GL1 5154  20.998  19.062   7.480  0.3804 -0.0406 -0.0429
  426PAPC   GL2 5155  21.215  18.912   7.343 -0.2069 -0.0026  0.2002
  426PAPC   C1A 5156  20.706  19.174   7.281  0.1487 -0.0418  0.0850
  426PAPC   D2A 5157  20.500  19.452   7.047  0.0194  0.2086 -0.2383
  426PAPC   D3A 5158  20.194  19.660   6.757 -0.2757  0.1887  0.0425
  426PAPC   D4A 5159  20.153  19.925   6.383  0.0928 -0.0599  0.1514
  426PAPC   C5A 5160  19.760  19.629   6.240 -0.1567 -0.0302 -0.0913
  426PAPC   C1B 5161  21.206  19.024   6.936 -0.0715  0.0921  0.1290
  426PAPC   C2B 5162  21.170  18.942   6.527  0.0477  0.2100  0.0838
  426PAPC   C3B 5163  21.070  18.907   6.092 -0.1429  0.0148  0.1856
  426PAPC   C4B 5164  21.149  18.924   5.635 -0.2588  0.0635 -0.0256
  427PAPC   NC3 5165   2.665  22.630   8.432  0.1603 -0.1509 -0.2472
  427PAPC   PO4 5166   2.798  22.735   8.052  0.1718 -0.1156  0.1272
  427PAPC   GL1 5167   2.936  22.754   7.684 -0.0123 -0.1621  0.2734
  427PAPC   GL2 5168   3.092  22.991   7.586  0.1453 -0.0552  0.2334
  427PAPC   C1A 5169   2.752  22.693   7.345  0.1821 -0.0346 -0.0474
  427PAPC   D2A 5170   2.740  22.712   6.973 -0.2298  0.3964 -0.1217
  427PAPC   D3A 5171   2.656  22.667   6.609 -0.3919 -0.0704  0.4234
  427PAPC   D4A 5172   2.527  22.518   6.215 -0.0398 -0.2051  0.1995
  427PAPC   C5A 5173   2.746  22.566   5.810  0.0611  0.1067  0.0559
  427PAPC   C1B 5174   3.245  22.834   7.308 -0.1040 -0.3817 -0.3925
  427PAPC   C2B 5175   3.391  22.569   7.060 -0.0813 -0.1153  0.0555
  427PAPC   C3B 5176   3.564  22.283   6.779 -0.1332  0.3565 -0.2315
  427PAPC   C4B 5177   3.396  21.848   6.623 -0.0145  0.2190 -0.1525
  428PAPC   NC3 5178   2.937   9.354   7.743  0.2908  0.1000  0.1392
  428PAPC   PO4 5179   3.288   9.588   7.736 -0.0872  0.1921  0.1064
  428PAPC   GL1 5180   3.473   9.592   7.355 -0.2552 -0.1342 -0.0071
  428PAPC   GL2 5181   3.590   9.326   7.380 -0.0196 -0.0969 -0.0945
  428PAPC   C1A 5182   3.179   9.778   7.161 -0.1060  0.0344 -0.2996
  428PAPC   D2A 5183   3.054  10.093   6.931 -0.0833  0.0153  0.0140
  428PAPC   D3A 5184   3.031  10.138   6.499  0.2865  0.2335  0.1673
  428PAPC   D4A 5185   3.044  10.077   6.078  0.0275  0.2168 -0.0831
  428PAPC   C5A 5186   2.827  10.055   5.686 -0.0882  0.0948  0.2720
  428PAPC   C1B 5187   3.673   9.224   6.979 -0.3870 -0.0694 -0.3586
  428PAPC   C2B 5188   3.691   9.037   6.599 -0.2424 -0.1412  0.3171
  428PAPC   C3B 5189   3.582   8.947   6.178  0.4651  0.1196 -0.0855
  428PAPC   C4B 5190   3.491   8.883   5.733  0.1648  0.1957 -0.1319
  429PAPC   NC3 5191   6.615  27.061   7.840  0.0098 -0.2093 -0.1154
  429PAPC   PO4 5192   6.434  27.169   7.536 -0.2465  0.0880  0.1083
  429PAPC   GL1 5193   6.453  26.926   7.178 -0.0243 -0.0834 -0.0722
  429PAPC   GL2 5194   6.571  26.674   7.318  0.5483  0.4184  0.0004
  429PAPC   C1A 5195   6.520  27.098   6.902 -0.0425  0.1896  0.1166
  429PAPC   D2A 5196   6.663  26.884   6.605  0.0516 -0.0614  0.2874
  429PAPC   D3A 5197   6.667  26.698   6.173 -0.0336  0.0308 -0.2380
  429PAPC   D4A 5198   6.709  26.283   5.955 -0.0791 -0.2833  0.1064
  429PAPC   C5A 5199   6.898  25.817   5.822  0.0815 -0.0976  0.2820
  429PAPC   C1B 5200   6.598  26.375   7.200 -0.2897 -0.3326 -0.2876
  429PAPC   C2B 5201   6.748  26.345   6.857 -0.0332  0.2904 -0.2226
  429PAPC   C3B 5202   6.979  26.361   6.436 -0.0125 -0.1841 -0.0071
  429PAPC   C4B 5203   7.164  26.119   6.097  0.0170 -0.1756  0.0287
  430PAPC   NC3 5204  19.141  10.434   7.017  0.0081 -0.2226 -0.3292
  430PAPC   PO4 5205  19.183  10.027   7.086  0.1593 -0.1333 -0.4919
  430PAPC   GL1 5206  19.104  10.044   6.708  0.0092  0.0478  0.0204
  430PAPC   GL2 5207  18.846   9.855   6.667  0.1024 -0.0990 -0.1276
  430PAPC   C1A 5208  19.402  10.235   6.567 -0.1740  0.1083  0.4504
  430PAPC   D2A 5209  19.518  10.394   6.232 -0.0355 -0.0754 -0.2106
  430PAPC   D3A 5210  19.626  10.437   5.781  0.1137  0.2480 -0.0355
  430PAPC   D4A 5211  20.016  10.414   5.499 -0.0658 -0.1163 -0.0956
  430PAPC   C5A 5212  20.138  10.708   5.187 -0.2398 -0.0569  0.1100
  430PAPC   C1B 5213  18.730   9.765   6.286 -0.1513 -0.0477  0.1627
  430PAPC   C2B 5214  18.845   9.903   5.911  0.2213  0.1713  0.0294
  430PAPC   C3B 5215  19.085  10.257   5.698  0.2427 -0.0501 -0.1505
  430PAPC   C4B 5216  19.342  10.500   5.350 -0.1046  0.1007 -0.0169
  431PAPC   NC3 5217  16.933  17.302   7.478  0.0797 -0.0129  0.2293
  431PAPC   PO4 5218  17.205  17.110   7.669 -0.1573 -0.2318 -0.1292
  431PAPC   GL1 5219  17.632  17.289   7.689  0.0711  0.0152 -0.2116
  431PAPC   GL2 5220  17.716  17.109   7.555  0.3608  0.3118 -0.0779
  431PAPC   C1A 5221  17.717  17.499   7.401 -0.0140 -0.0750  0.0382
  431PAPC   D2A 5222  18.040  17.556   7.162 -0.0670  0.0867  0.1638
  431PAPC   D3A 5223  18.104  17.733   6.775 -0.0152  0.3769 -0.1326
  431PAPC   D4A 5224  18.303  17.513   6.394  0.2002  0.1649  0.1249
  431PAPC   C5A 5225  18.484  17.637   5.949  0.0156 -0.4194  0.1601
  431PAPC   C1B 5226  17.820  17.104   7.233 -0.0779 -0.1389  0.1184
  431PAPC   C2B 5227  17.872  17.078   6.809  0.3311  0.0496  0.0610
  431PAPC   C3B 5228  17.984  17.052   6.348  0.1659  0.1246 -0.3080
  431PAPC   C4B 5229  18.066  17.338   5.943  0.0205  0.3281  0.0047
  432PAPC   NC3 5230  14.665  24.445   8.110 -0.2703 -0.0655 -0.1696
  432PAPC   PO4 5231  14.709  24.839   8.239  0.2133 -0.0267  0.3913
  432PAPC   GL1 5232  14.809  24.962   7.891 -0.0327 -0.0675 -0.4011
  432PAPC   GL2 5233  14.907  24.863   7.659  0.2832 -0.2514 -0.0224
  432PAPC   C1A 5234  14.748  25.342   7.794 -0.2537  0.0732 -0.1761
  432PAPC   D2A 5235  14.657  25.549   7.400 -0.0246  0.3252 -0.2363
  432PAPC   D3A 5236  14.655  25.604   6.945  0.0864  0.0566 -0.0068
  432PAPC   D4A 5237  14.433  25.798   6.602  0.0140 -0.0804  0.0610
  432PAPC   C5A 5238  14.061  25.655   6.879  0.1437 -0.1854  0.1467
  432PAPC   C1B 5239  14.860  24.988   7.304 -0.1978 -0.1406  0.2577
  432PAPC   C2B 5240  14.785  24.976   6.911 -0.0682  0.0939  0.1408
  432PAPC   C3B 5241  14.946  25.012   6.419  0.2031  0.0237 -0.1172
  432PAPC   C4B 5242  14.879  25.247   5.972 -0.0969 -0.2816  0.2096
  433PAPC   NC3 5243  11.609  10.148   8.417  0.3356 -0.0002 -0.2729
  433PAPC   PO4 5244  11.845   9.959   8.130  0.2422 -0.0219 -0.2797
  433PAPC   GL1 5245  11.759   9.888   7.814  0.1554 -0.0160  0.1160
  433PAPC   GL2 5246  11.568   9.724   7.813  0.3164  0.2066 -0.0470
  433PAPC   C1A 5247  11.790   9.910   7.455 -0.3416 -0.0758  0.2597
  433PAPC   D2A 5248  11.665   9.840   7.125 -0.0370  0.0129  0.0874
  433PAPC   D3A 5249  11.794   9.891   6.699  0.2052 -0.0755 -0.1197
  433PAPC   D4A 5250  12.089  10.095   6.471  0.1088  0.0978  0.0754
  433PAPC   C5A 5251  12.224  10.005   6.004  0.0748 -0.1246 -0.2134
  433PAPC   C1B 5252  11.581   9.544   7.470  0.8051 -0.2314 -0.0482
  433PAPC   C2B 5253  11.620   9.323   7.109 -0.2214 -0.1078 -0.0934
  433PAPC   C3B 5254  11.863   9.360   6.650  0.1115  0.1565 -0.0849
  433PAPC   C4B 5255  12.220   9.310   6.342 -0.0164  0.1586  0.3946
  434PAPC   NC3 5256   8.540  26.497   8.184  0.0161 -0.0488  0.0989
  434PAPC   PO4 5257   8.622  26.255   7.879  0.6794  0.0228 -0.3413
  434PAPC   GL1 5258   8.610  26.241   7.437  0.2224  0.3584 -0.0393
  434PAPC   GL2 5259   8.666  26.019   7.410 -0.1106  0.3003  0.1535
  434PAPC   C1A 5260   8.700  26.474   7.116 -0.0560  0.0696  0.2473
  434PAPC   D2A 5261   9.014  26.468   6.922 -0.0670  0.2452  0.0388
  434PAPC   D3A 5262   9.295  26.171   7.070  0.0215 -0.0386  0.1171
  434PAPC   D4A 5263   9.452  25.980   6.715  0.1760  0.3900  0.2128
  434PAPC   C5A 5264   9.474  26.037   6.219  0.0307  0.3593  0.2449
  434PAPC   C1B 5265   8.876  26.050   7.139  0.1175  0.2617  0.0918
  434PAPC   C2B 5266   8.938  25.980   6.764 -0.0135 -0.0298  0.2331
  434PAPC   C3B 5267   8.971  26.210   6.339 -0.2704  0.2945 -0.1001
  434PAPC   C4B 5268   9.012  26.220   5.910 -0.0004  0.1962 -0.1446
  435PAPC   NC3 5269  24.606  15.445   7.489  0.0194  0.2540 -0.1920
  435PAPC   PO4 5270  24.540  15.099   7.301  0.2844 -0.0814 -0.0481
  435PAPC   GL1 5271  24.391  15.045   6.921 -0.3405 -0.0732  0.0846
  435PAPC   GL2 5272  24.332  14.830   6.848  0.1287  0.3951  0.4165
  435PAPC   C1A 5273  24.637  15.220   6.630 -0.0926  0.1489 -0.0161
  435PAPC   D2A 5274  24.742  15.090   6.238 -0.1578  0.0016 -0.1024
  435PAPC   D3A 5275  24.575  15.134   5.802 -0.1045 -0.2228 -0.2992
  435PAPC   D4A 5276  24.155  15.200   5.645  0.1112 -0.0457 -0.0244
  435PAPC   C5A 5277  24.070  15.715   5.583  0.0373 -0.4431 -0.0402
  435PAPC   C1B 5278  24.495  14.651   6.594  0.0679 -0.2094 -0.0885
  435PAPC   C2B 5279  24.715  14.424   6.370  0.1144  0.2735 -0.0171
  435PAPC   C3B 5280  25.144  14.288   6.156  0.1384 -0.0050 -0.0049
  435PAPC   C4B 5281  25.466  14.335   5.741 -0.1588  0.0057  0.1087
  436PAPC   NC3 5282  26.573   4.114   8.486 -0.0565 -0.0269  0.1161
  436PAPC   PO4 5283  26.647   4.484   8.353  0.0455 -0.0194 -0.2919
  436PAPC   GL1 5284  26.791   4.495   7.956  0.1123 -0.2618  0.2027
  436PAPC   GL2 5285  26.555   4.637   7.788  0.1443 -0.3739  0.0985
  436PAPC   C1A 5286  26.834   4.224   7.667 -0.1642 -0.1141  0.0278
  436PAPC   D2A 5287  26.917   4.207   7.272  0.0402  0.1342  0.0689
  436PAPC   D3A 5288  26.764   4.328   6.933 -0.0437  0.2735  0.3575
  436PAPC   D4A 5289  26.768   4.276   6.524 -0.2162  0.0925 -0.1376
  436PAPC   C5A 5290  26.912   3.899   6.243  0.1911 -0.0961  0.1610
  436PAPC   C1B 5291  26.396   4.750   7.431 -0.3223 -0.1420 -0.1441
  436PAPC   C2B 5292  26.322   4.632   7.049 -0.2289  0.0076 -0.0440
  436PAPC   C3B 5293  26.287   4.454   6.558  0.2862 -0.1007 -0.3137
  436PAPC   C4B 5294  26.236   4.397   6.065 -0.0579  0.1255  0.3601
  437PAPC   NC3 5295  24.579   0.920   7.746  0.0493 -0.1024 -0.3265
  437PAPC   PO4 5296  24.538   1.275   7.604  0.0514  0.1250  0.1691
  437PAPC   GL1 5297  24.657   1.479   7.237  0.2804 -0.0933  0.2889
  437PAPC   GL2 5298  24.764   1.750   7.461 -0.2314 -0.0664 -0.4628
  437PAPC   C1A 5299  24.707   1.557   6.872 -0.0984  0.1081 -0.1793
  437PAPC   D2A 5300  24.462   1.683   6.544  0.3312 -0.0031  0.2134
  437PAPC   D3A 5301  24.060   1.580   6.300 -0.0951  0.0843 -0.1229
  437PAPC   D4A 5302  24.045   1.426   5.850  0.1789  0.1817  0.1447
  437PAPC   C5A 5303  23.585   1.298   5.715 -0.1233  0.0583  0.1541
  437PAPC   C1B 5304  24.934   1.930   7.133  0.0432 -0.0999 -0.1307
  437PAPC   C2B 5305  25.162   1.894   6.772 -0.0504 -0.2338 -0.2328
  437PAPC   C3B 5306  25.234   1.729   6.343  0.1226 -0.1331  0.1311
  437PAPC   C4B 5307  24.948   1.743   5.936  0.3304 -0.2898 -0.0260
  438PAPC   NC3 5308  21.003   6.458   7.147 -0.0445  0.2833  0.2991
  438PAPC   PO4 5309  20.618   6.417   7.092  0.0843  0.2562  0.1344
  438PAPC   GL1 5310  20.604   6.642   6.664  0.0517  0.1187 -0.0678
  438PAPC   GL2 5311  20.864   6.444   6.667 -0.1114  0.0999  0.2189
  438PAPC   C1A 5312  20.465   6.539   6.334  0.0615 -0.2473 -0.3188
  438PAPC   D2A 5313  20.540   6.372   5.974 -0.2573 -0.2130 -0.0826
  438PAPC   D3A 5314  20.424   6.009   5.772  0.3146 -0.1936 -0.2796
  438PAPC   D4A 5315  20.355   5.530   5.718 -0.0493 -0.0756  0.2477
  438PAPC   C5A 5316  20.043   5.783   5.433 -0.0769  0.0860 -0.1891
  438PAPC   C1B 5317  20.957   6.446   6.339 -0.2219 -0.3385  0.1104
  438PAPC   C2B 5318  21.123   6.466   5.944 -0.4239 -0.2459  0.0192
  438PAPC   C3B 5319  21.488   6.448   5.698 -0.3187 -0.3941 -0.1436
  438PAPC   C4B 5320  21.917   6.666   5.488  0.0806  0.1447 -0.0506
  439PAPC   NC3 5321   3.999  23.423   7.248  0.2403  0.3869  0.0362
  439PAPC   PO4 5322   4.271  23.237   7.481  0.1512 -0.1774 -0.3840
  439PAPC   GL1 5323   4.597  22.952   7.348 -0.0787  0.3867 -0.1372
  439PAPC   GL2 5324   4.491  23.163   7.136 -0.2066 -0.0056  0.0968
  439PAPC   C1A 5325   4.949  23.041   7.336  0.0086 -0.1762  0.1899
  439PAPC   D2A 5326   5.344  23.007   7.484 -0.3558 -0.1452  0.1395
  439PAPC   D3A 5327   5.446  23.438   7.553  0.2095  0.1111  0.0846
  439PAPC   D4A 5328   5.333  23.457   7.167  0.0377 -0.0770  0.0860
  439PAPC   C5A 5329   5.064  23.743   6.937  0.0508  0.1843 -0.0494
  439PAPC   C1B 5330   4.378  23.242   6.784 -0.3555  0.3792 -0.0792
  439PAPC   C2B 5331   4.093  23.471   6.586 -0.1391  0.0215  0.0297
  439PAPC   C3B 5332   4.139  23.590   6.101  0.1060  0.0529 -0.0138
  439PAPC   C4B 5333   3.979  23.761   5.674  0.0274  0.0192  0.1767
  440PAPC   NC3 5334  26.768  10.333   7.849 -0.0270  0.0664 -0.0213
  440PAPC   PO4 5335  26.476  10.063   7.704  0.0648  0.0256  0.0063
  440PAPC   GL1 5336  26.319   9.920   7.332  0.5051 -0.1824  0.2062
  440PAPC   GL2 5337  26.097   9.935   7.373 -0.1434 -0.3156 -0.1606
  440PAPC   C1A 5338  26.460  10.157   7.117  0.3643 -0.2391  0.0892
  440PAPC   D2A 5339  26.307  10.076   6.710 -0.2933 -0.2888  0.1821
  440PAPC   D3A 5340  26.060  10.162   6.362  0.0671  0.0488 -0.1371
  440PAPC   D4A 5341  26.021  10.467   6.047 -0.1175 -0.0521  0.1368
  440PAPC   C5A 5342  25.955  10.772   5.704  0.3218  0.1902 -0.0220
  440PAPC   C1B 5343  26.027   9.845   6.977 -0.0026 -0.0269 -0.2715
  440PAPC   C2B 5344  25.919   9.689   6.589  0.0693  0.0983 -0.1819
  440PAPC   C3B 5345  26.003   9.604   6.073 -0.1742 -0.1341 -0.4374
  440PAPC   C4B 5346  26.257   9.552   5.565 -0.0076 -0.1580  0.0564
  441PAPC   NC3 5347   9.248   9.787   7.471 -0.1382  0.3805  0.0377
  441PAPC   PO4 5348   9.126  10.144   7.331  0.0752  0.2525 -0.2753
  441PAPC   GL1 5349   9.201  10.513   7.160  0.0208  0.0879  0.0855
  441PAPC   GL2 5350   8.984  10.580   7.058 -0.0929  0.2343 -0.2013
  441PAPC   C1A 5351   9.386  10.550   6.815  0.0435  0.3232 -0.3392
  441PAPC   D2A 5352   9.591  10.436   6.526  0.1585  0.1344  0.0069
  441PAPC   D3A 5353   9.965  10.380   6.355  0.3046 -0.4574 -0.0370
  441PAPC   D4A 5354   9.784   9.959   6.391  0.0503 -0.0323 -0.2376
  441PAPC   C5A 5355   9.497   9.843   6.682  0.2855  0.3474  0.0012
  441PAPC   C1B 5356   8.955  10.546   6.713 -0.0190  0.5518  0.1565
  441PAPC   C2B 5357   9.038  10.549   6.300  0.3074 -0.2759  0.1208
  441PAPC   C3B 5358   9.089  10.323   5.816 -0.0486 -0.0536  0.0826
  441PAPC   C4B 5359   9.088  10.260   5.261 -0.1485 -0.0107 -0.0942
  442PAPC   NC3 5360   0.887  17.666   7.899 -0.3204  0.0214  0.0565
  442PAPC   PO4 5361   1.015  17.294   7.770 -0.2368  0.1555 -0.1942
  442PAPC   GL1 5362   1.101  17.390   7.320  0.0966 -0.2478  0.0455
  442PAPC   GL2 5363   0.924  17.649   7.405 -0.0882  0.4513 -0.0975
  442PAPC   C1A 5364   1.120  17.273   6.948  0.2408  0.1083  0.2264
  442PAPC   D2A 5365   1.409  17.176   6.740 -0.0698  0.1320  0.3319
  442PAPC   D3A 5366   1.512  16.940   6.386  0.0512  0.0953 -0.1109
  442PAPC   D4A 5367   1.441  16.923   5.900 -0.1800 -0.2730 -0.3650
  442PAPC   C5A 5368   1.473  16.517   5.670  0.0994 -0.2968 -0.1855
  442PAPC   C1B 5369   1.073  17.829   7.110 -0.2921  0.1616 -0.0653
  442PAPC   C2B 5370   0.923  18.067   6.815  0.1016 -0.1398 -0.0877
  442PAPC   C3B 5371   0.776  18.305   6.409 -0.1019  0.1927  0.1383
  442PAPC   C4B 5372   0.548  18.430   6.045 -0.0066  0.1087  0.0206
  443PAPC   NC3 5373   4.859   3.999   8.134 -0.1457  0.0253  0.0228
  443PAPC   PO4 5374   4.592   3.930   7.812 -0.1872  0.3963 -0.0026
  443PAPC   GL1 5375   4.364   4.040   7.555  0.0396 -0.1575  0.3222
  443PAPC   GL2 5376   4.125   3.925   7.460  0.0498 -0.2206  0.1643
  443PAPC   C1A 5377   4.571   4.091   7.205  0.0931  0.2298  0.3327
  443PAPC   D2A 5378   4.616   4.435   7.083  0.2822  0.1866  0.2362
  443PAPC   D3A 5379   4.190   4.719   7.115 -0.0242 -0.0924  0.1832
  443PAPC   D4A 5380   3.780   4.845   7.037 -0.3116 -0.2871  0.0850
  443PAPC   C5A 5381   3.373   4.958   6.888  0.3016  0.0222  0.1215
  443PAPC   C1B 5382   4.158   3.884   7.115 -0.0451  0.2673 -0.0365
  443PAPC   C2B 5383   3.993   3.947   6.746  0.1898 -0.1453  0.0927
  443PAPC   C3B 5384   3.767   4.149   6.407  0.1867  0.0718  0.2292
  443PAPC   C4B 5385   3.676   4.369   6.102 -0.1799  0.0576 -0.3291
  444PAPC   NC3 5386  17.246   1.629   8.013  0.2342  0.3029 -0.0040
  444PAPC   PO4 5387  16.967   1.388   8.201  0.0687  0.0937 -0.2352
  444PAPC   GL1 5388  16.756   1.310   7.843 -0.3128 -0.4337 -0.1377
  444PAPC   GL2 5389  16.996   1.265   7.644 -0.0844  0.2659 -0.3429
  444PAPC   C1A 5390  16.565   1.338   7.595  0.3150 -0.0226 -0.0143
  444PAPC   D2A 5391  16.203   1.132   7.428  0.3354 -0.0707  0.1837
  444PAPC   D3A 5392  16.062   1.045   6.996 -0.1576  0.0981 -0.4352
  444PAPC   D4A 5393  16.134   1.023   6.569  0.0476  0.2528  0.0761
  444PAPC   C5A 5394  15.909   0.932   6.258 -0.0558 -0.2087  0.5894
  444PAPC   C1B 5395  16.820   1.227   7.303 -0.2754 -0.0864 -0.2927
  444PAPC   C2B 5396  16.504   1.343   7.087 -0.1763 -0.0294  0.4968
  444PAPC   C3B 5397  16.189   1.507   6.698  0.0460  0.1039 -0.0441
  444PAPC   C4B 5398  15.876   1.892   6.546 -0.1792 -0.1764  0.2248
  445PAPC   NC3 5399  23.400  25.463   6.916  0.0315 -0.0115  0.0863
  445PAPC   PO4 5400  23.632  25.532   7.225  0.0490 -0.1306  0.1578
  445PAPC   GL1 5401  23.842  25.752   6.939 -0.3931  0.1340  0.2266
  445PAPC   GL2 5402  24.034  25.867   7.168  0.0852 -0.2772  0.1532
  445PAPC   C1A 5403  23.910  25.690   6.641 -0.1638 -0.0776  0.0551
  445PAPC   D2A 5404  23.877  25.294   6.738 -0.3231  0.1553  0.1404
  445PAPC   D3A 5405  24.026  25.175   6.299 -0.2166 -0.0346 -0.0094
  445PAPC   D4A 5406  23.946  25.604   6.197  0.1177  0.0199  0.1378
  445PAPC   C5A 5407  23.517  25.647   5.889  0.1163  0.1470  0.1158
  445PAPC   C1B 5408  24.342  25.932   6.921 -0.1118 -0.0052 -0.2585
  445PAPC   C2B 5409  24.413  26.035   6.514  0.4402 -0.0156 -0.1112
  445PAPC   C3B 5410  24.451  25.975   5.984 -0.0194 -0.0328  0.1122
  445PAPC   C4B 5411  24.630  26.078   5.490  0.1417  0.0371 -0.2293
  446PAPC   NC3 5412  15.195   3.801   8.397  0.2907  0.0838  0.1685
  446PAPC   PO4 5413  15.236   3.548   8.112 -0.0075 -0.0003  0.1102
  446PAPC   GL1 5414  15.086   3.190   7.822 -0.0309  0.1839 -0.1166
  446PAPC   GL2 5415  14.910   3.393   7.689  0.1804  0.2977  0.4268
  446PAPC   C1A 5416  15.320   2.927   7.627 -0.0624  0.1888 -0.3342
  446PAPC   D2A 5417  15.495   3.223   7.364  0.1195  0.3715 -0.1018
  446PAPC   D3A 5418  15.639   3.296   6.887 -0.1720 -0.3074 -0.1354
  446PAPC   D4A 5419  15.652   3.100   6.487  0.3007 -0.0947  0.1764
  446PAPC   C5A 5420  15.543   2.663   6.299  0.0784  0.4731  0.2975
  446PAPC   C1B 5421  15.078   3.403   7.369  0.0134  0.2717  0.0421
  446PAPC   C2B 5422  15.130   3.409   6.941  0.1198 -0.0515  0.0028
  446PAPC   C3B 5423  15.275   3.378   6.425  0.0550 -0.1072 -0.3637
  446PAPC   C4B 5424  15.359   3.059   6.031  0.0286  0.0362  0.0893
  447PAPC   NC3 5425   9.569  19.556   7.969  0.0435  0.0942  0.1908
  447PAPC   PO4 5426   9.732  19.516   7.612 -0.0445 -0.2792 -0.1455
  447PAPC   GL1 5427   9.518  19.425   7.312  0.1947 -0.2019  0.1214
  447PAPC   GL2 5428   9.712  19.198   7.243 -0.0849  0.0509  0.1570
  447PAPC   C1A 5429   9.368  19.555   6.982 -0.2210  0.0846 -0.1315
  447PAPC   D2A 5430   9.379  19.625   6.630  0.0894 -0.1498  0.4283
  447PAPC   D3A 5431   9.364  19.259   6.476 -0.2274 -0.1648  0.0800
  447PAPC   D4A 5432   9.145  19.340   6.110 -0.2098  0.0297  0.1136
  447PAPC   C5A 5433   8.795  19.286   5.785 -0.0312  0.0354  0.0395
  447PAPC   C1B 5434   9.469  19.093   7.035 -0.0236 -0.2629 -0.3165
  447PAPC   C2B 5435   9.071  19.163   6.859  0.0518 -0.2949  0.1704
  447PAPC   C3B 5436   8.810  19.388   6.515  0.1198  0.0275  0.1697
  447PAPC   C4B 5437   8.535  19.482   6.168 -0.0481  0.0401  0.0227
  448PAPC   NC3 5438  11.491   9.057   8.393  0.1213  0.2448 -0.1349
  448PAPC   PO4 5439  11.474   8.822   8.037  0.1129 -0.3812 -0.0971
  448PAPC   GL1 5440  11.576   8.843   7.633  0.2606 -0.0227 -0.0600
  448PAPC   GL2 5441  11.668   9.098   7.647 -0.4217  0.0622  0.1717
  448PAPC   C1A 5442  11.854   8.723   7.417  0.2584  0.2132  0.1512
  448PAPC   D2A 5443  11.757   8.465   7.093 -0.0889  0.2405 -0.2303
  448PAPC   D3A 5444  11.807   8.455   6.622  0.3051  0.3639  0.0075
  448PAPC   D4A 5445  11.873   8.531   6.120  0.0703  0.0593  0.0963
  448PAPC   C5A 5446  11.675   8.825   5.691 -0.1150  0.1844 -0.0452
  448PAPC   C1B 5447  11.953   9.115   7.370  0.1547  0.0492 -0.3871
  448PAPC   C2B 5448  11.951   8.941   6.977  0.2862 -0.2186  0.0617
  448PAPC   C3B 5449  11.980   8.889   6.497 -0.3188 -0.0612  0.0265
  448PAPC   C4B 5450  12.144   8.915   6.056 -0.1723  0.0058 -0.2375
  449PAPC   NC3 5451  21.878  18.173   7.191 -0.2003  0.2448 -0.0635
  449PAPC   PO4 5452  21.954  17.741   7.188 -0.2120  0.4456 -0.1658
  449PAPC   GL1 5453  22.167  17.639   6.846  0.2534 -0.1423  0.1942
  449PAPC   GL2 5454  22.422  17.734   6.829 -0.3520  0.1014  0.1586
  449PAPC   C1A 5455  21.996  17.589   6.508 -0.3662  0.2369  0.0736
  449PAPC   D2A 5456  21.920  17.619   6.104  0.0091  0.1349  0.2708
  449PAPC   D3A 5457  21.958  17.540   5.636  0.0588 -0.1084 -0.2351
  449PAPC   D4A 5458  22.282  17.749   5.370 -0.1743 -0.1253 -0.0580
  449PAPC   C5A 5459  21.957  17.593   5.087 -0.1149  0.2359  0.1052
  449PAPC   C1B 5460  22.431  17.856   6.477  0.1320 -0.1018  0.1958
  449PAPC   C2B 5461  22.401  17.956   6.104 -0.2915  0.0270 -0.1824
  449PAPC   C3B 5462  22.386  18.150   5.653  0.0755 -0.2694  0.3752
  449PAPC   C4B 5463  22.539  18.206   5.242  0.1671  0.0914  0.0462
  450PAPC   NC3 5464   9.376  26.884   8.093  0.3779 -0.1051  0.1296
  450PAPC   PO4 5465   9.408  26.587   7.820 -0.2278 -0.0059 -0.0504
  450PAPC   GL1 5466   9.464  26.688   7.375 -0.5801 -0.1555  0.1163
  450PAPC   GL2 5467   9.518  27.036   7.492  0.1334 -0.0284 -0.0538
  450PAPC   C1A 5468   9.535  26.638   7.014  0.4392  0.3113 -0.0682
  450PAPC   D2A 5469   9.418  26.454   6.655 -0.1832 -0.3786 -0.1738
  450PAPC   D3A 5470   9.428  26.514   6.250  0.1873 -0.0069 -0.2413
  450PAPC   D4A 5471   9.584  26.442   5.855  0.1023 -0.0568  0.0609
  450PAPC   C5A 5472   9.408  26.083   5.514 -0.1711 -0.0068 -0.1715
  450PAPC   C1B 5473   9.509  27.048   7.154  0.0466 -0.2053 -0.0918
  450PAPC   C2B 5474   9.570  27.100   6.724  0.2264  0.1728  0.2389
  450PAPC   C3B 5475   9.521  26.991   6.235 -0.0017  0.0099  0.0989
  450PAPC   C4B 5476   9.471  26.957   5.736 -0.0018  0.4824 -0.1076
  451PAPC   NC3 5477  14.654   9.467   7.933  0.1196  0.1633  0.0709
  451PAPC   PO4 5478  14.250   9.416   7.984  0.0663 -0.0990 -0.1680
  451PAPC   GL1 5479  14.112   9.362   7.543 -0.1730  0.1158 -0.2385
  451PAPC   GL2 5480  14.242   9.661   7.582  0.0311 -0.4414  0.0461
  451PAPC   C1A 5481  14.048   9.307   7.217  0.5016  0.0120 -0.1156
  451PAPC   D2A 5482  14.034   9.238   6.815 -0.0736 -0.0319  0.1718
  451PAPC   D3A 5483  13.777   9.166   6.456 -0.0320 -0.0878  0.1461
  451PAPC   D4A 5484  13.718   9.289   6.014 -0.1297  0.2545  0.0946
  451PAPC   C5A 5485  13.678   8.789   5.941 -0.3345 -0.0364  0.1544
  451PAPC   C1B 5486  13.998   9.945   7.474 -0.2537  0.1955 -0.0204
  451PAPC   C2B 5487  13.701  10.172   7.253  0.2718 -0.3282 -0.1565
  451PAPC   C3B 5488  13.638  10.606   7.257  0.3871  0.2592  0.0448
  451PAPC   C4B 5489  13.293  10.954   7.195  0.1626 -0.2525  0.0224
  452PAPC   NC3 5490  14.606   1.478   8.070  0.2531 -0.2082 -0.0317
  452PAPC   PO4 5491  14.975   1.601   8.073 -0.1099 -0.0142  0.3757
  452PAPC   GL1 5492  15.109   1.815   7.741  0.4843  0.4076  0.1245
  452PAPC   GL2 5493  15.349   1.559   7.697  0.0252  0.0445 -0.0215
  452PAPC   C1A 5494  15.102   1.971   7.447  0.4166  0.1683 -0.2400
  452PAPC   D2A 5495  15.144   2.180   7.081 -0.3701  0.5049  0.2701
  452PAPC   D3A 5496  15.065   2.484   6.815  0.2289  0.1267  0.0820
  452PAPC   D4A 5497  15.076   2.448   6.378 -0.0623  0.0551 -0.0023
  452PAPC   C5A 5498  15.035   2.954   6.470 -0.4156 -0.3776 -0.2422
  452PAPC   C1B 5499  15.295   1.376   7.472 -0.1140  0.2833 -0.2721
  452PAPC   C2B 5500  15.301   1.376   7.088  0.1454  0.1107 -0.1484
  452PAPC   C3B 5501  15.339   1.543   6.630 -0.1753 -0.0016  0.2217
  452PAPC   C4B 5502  15.384   1.652   6.147  0.1145  0.2704  0.0380
  453PAPC   NC3 5503  22.114  19.087   7.542 -0.1899  0.1590 -0.0116
  453PAPC   PO4 5504  22.364  19.335   7.346  0.1458  0.0896  0.0520
  453PAPC   GL1 5505  22.242  19.503   6.956 -0.1895 -0.3398 -0.1602
  453PAPC   GL2 5506  21.997  19.358   7.039  0.1679  0.2495 -0.0760
  453PAPC   C1A 5507  22.166  19.468   6.575 -0.1865  0.2214 -0.3239
  453PAPC   D2A 5508  22.080  19.494   6.210 -0.3612  0.1249  0.0234
  453PAPC   D3A 5509  22.206  19.780   5.894  0.0351 -0.3767  0.2880
  453PAPC   D4A 5510  22.111  19.975   5.464 -0.2222  0.0237  0.1665
  453PAPC   C5A 5511  21.699  19.985   5.212 -0.3608  0.0676 -0.1230
  453PAPC   C1B 5512  21.878  19.223   6.730  0.2828  0.1562 -0.0464
  453PAPC   C2B 5513  21.648  19.154   6.372  0.3238 -0.1248  0.0389
  453PAPC   C3B 5514  21.528  19.076   5.965  0.0968 -0.0769 -0.3021
  453PAPC   C4B 5515  21.723  18.802   5.561 -0.1032 -0.4172 -0.2955
  454PAPC   NC3 5516   5.669   4.107   7.495  0.0009  0.0762  0.0100
  454PAPC   PO4 5517   5.469   3.870   7.239 -0.0336  0.0248 -0.2611
  454PAPC   GL1 5518   5.365   3.631   6.877  0.1148  0.2192  0.1338
  454PAPC   GL2 5519   5.646   3.778   6.798  0.0714  0.2398  0.0023
  454PAPC   C1A 5520   5.418   3.367   6.588 -0.1464  0.0276  0.1396
  454PAPC   D2A 5521   5.462   3.394   6.205  0.0078 -0.1508  0.1272
  454PAPC   D3A 5522   5.251   3.290   5.803  0.1299  0.2498  0.1403
  454PAPC   D4A 5523   4.955   2.934   5.793  0.4337  0.0226  0.0632
  454PAPC   C5A 5524   4.839   2.783   5.412  0.0352  0.3711 -0.0889
  454PAPC   C1B 5525   5.564   3.953   6.470 -0.0550  0.1626  0.2945
  454PAPC   C2B 5526   5.631   3.877   6.057  0.0555  0.0971 -0.1247
  454PAPC   C3B 5527   5.588   3.657   5.615 -0.0975 -0.1111  0.1875
  454PAPC   C4B 5528   5.716   3.460   5.205  0.0547  0.2009 -0.2844
  455PAPC   NC3 5529  11.590  17.905   7.984  0.0304  0.0989  0.0549
  455PAPC   PO4 5530  11.381  17.605   7.782  0.0085  0.0648  0.1892
  455PAPC   GL1 5531  11.128  17.749   7.400 -0.1524 -0.1053 -0.1289
  455PAPC   GL2 5532  11.315  17.642   7.214 -0.2343  0.0881  0.2901
  455PAPC   C1A 5533  10.950  17.911   7.149 -0.3256 -0.2117 -0.0562
  455PAPC   D2A 5534  10.771  18.006   6.774  0.5458  0.0937 -0.1534
  455PAPC   D3A 5535  10.727  17.985   6.322 -0.1613  0.2707 -0.1073
  455PAPC   D4A 5536  10.481  18.317   6.188  0.5656 -0.0434 -0.0141
  455PAPC   C5A 5537  10.046  18.461   5.968  0.0592  0.0247  0.0414
  455PAPC   C1B 5538  11.244  17.729   6.843  0.3051 -0.1068  0.0908
  455PAPC   C2B 5539  11.226  17.730   6.406 -0.2804  0.2502  0.2138
  455PAPC   C3B 5540  11.179  17.677   5.963  0.1554 -0.1478  0.0203
  455PAPC   C4B 5541  11.210  17.990   5.603  0.4507  0.0568  0.0408
  456PAPC   NC3 5542   6.124   5.759   8.026  0.0484 -0.0227 -0.1104
  456PAPC   PO4 5543   5.987   5.671   7.632 -0.1491 -0.0901 -0.1105
  456PAPC   GL1 5544   6.043   5.839   7.277  0.1077  0.1482 -0.0811
  456PAPC   GL2 5545   5.891   6.080   7.289 -0.0555 -0.3453  0.1014
  456PAPC   C1A 5546   5.828   5.636   7.056 -0.1371 -0.1182  0.0322
  456PAPC   D2A 5547   5.616   5.652   6.736  0.2672 -0.1128  0.0745
  456PAPC   D3A 5548   5.895   5.593   6.429 -0.1187 -0.0440  0.1311
  456PAPC   D4A 5549   5.834   5.596   6.043 -0.0821  0.1657  0.1148
  456PAPC   C5A 5550   6.150   5.404   5.671 -0.0228 -0.3394  0.0653
  456PAPC   C1B 5551   5.744   6.063   6.961  0.2016  0.1031 -0.1966
  456PAPC   C2B 5552   5.593   6.119   6.583  0.1203  0.1779  0.1357
  456PAPC   C3B 5553   5.490   5.939   6.134 -0.0600 -0.2128 -0.3374
  456PAPC   C4B 5554   5.512   5.730   5.667  0.1831 -0.3486 -0.1640
  457PAPC   NC3 5555  12.544  25.939   8.325  0.0938 -0.2539 -0.1232
  457PAPC   PO4 5556  12.550  25.730   7.983 -0.1114 -0.3917 -0.4046
  457PAPC   GL1 5557  12.815  26.006   7.711  0.1319 -0.1736  0.0097
  457PAPC   GL2 5558  12.750  25.725   7.566 -0.2820 -0.2229 -0.0484
  457PAPC   C1A 5559  12.736  26.314   7.475 -0.1934  0.2459  0.0206
  457PAPC   D2A 5560  12.829  26.683   7.346 -0.2192  0.1115 -0.1925
  457PAPC   D3A 5561  12.547  26.811   7.102 -0.0650 -0.3400 -0.1680
  457PAPC   D4A 5562  12.428  27.188   6.914  0.1778 -0.0537  0.1887
  457PAPC   C5A 5563  12.083  27.165   6.639 -0.2071 -0.0537  0.2902
  457PAPC   C1B 5564  12.603  25.850   7.272 -0.0143  0.1918  0.1031
  457PAPC   C2B 5565  12.712  25.970   6.882 -0.2888 -0.0241  0.2863
  457PAPC   C3B 5566  12.698  26.060   6.384  0.0649 -0.2638  0.2165
  457PAPC   C4B 5567  12.845  26.112   5.867 -0.0809  0.1805  0.0456
  458PAPC   NC3 5568  15.658  12.573   7.309 -0.1421  0.0210 -0.0466
  458PAPC   PO4 5569  15.523  12.936   7.231 -0.2978 -0.2688  0.0853
  458PAPC   GL1 5570  15.621  12.896   6.819 -0.1002 -0.2622  0.1771
  458PAPC   GL2 5571  15.478  13.145   6.761 -0.1445 -0.1290 -0.0251
  458PAPC   C1A 5572  15.695  12.874   6.423  0.1646 -0.0255  0.0193
  458PAPC   D2A 5573  15.867  12.813   6.061 -0.2105 -0.2954  0.1002
  458PAPC   D3A 5574  15.922  13.010   5.684 -0.1325 -0.2802  0.3554
  458PAPC   D4A 5575  15.927  12.690   5.429  0.2403  0.1286  0.0363
  458PAPC   C5A 5576  16.201  12.535   5.828  0.3789 -0.1852 -0.0344
  458PAPC   C1B 5577  15.427  13.332   6.408  0.2889  0.5591  0.1769
  458PAPC   C2B 5578  15.502  13.527   6.070  0.4020  0.2625 -0.2553
  458PAPC   C3B 5579  15.461  13.762   5.636  0.1118 -0.0206 -0.0030
  458PAPC   C4B 5580  15.576  14.061   5.252  0.2278 -0.2954  0.0290
  459PAPC   NC3 5581  25.179  24.256   7.512  0.2181  0.0340 -0.5227
  459PAPC   PO4 5582  24.904  23.956   7.439  0.0583 -0.4038 -0.2691
  459PAPC   GL1 5583  25.056  23.894   7.046  0.1553  0.0285 -0.0663
  459PAPC   GL2 5584  25.101  23.646   7.094 -0.0039  0.2489 -0.0245
  459PAPC   C1A 5585  25.159  23.975   6.684 -0.2473  0.2234  0.4180
  459PAPC   D2A 5586  25.156  24.370   6.721 -0.0439  0.2380  0.1291
  459PAPC   D3A 5587  25.525  24.516   6.472 -0.0551  0.1048 -0.0249
  459PAPC   D4A 5588  25.756  24.506   6.037 -0.0476 -0.0108 -0.0703
  459PAPC   C5A 5589  26.245  24.446   5.866 -0.2363 -0.0072 -0.0896
  459PAPC   C1B 5590  25.261  23.535   6.760 -0.0489  0.3128 -0.0876
  459PAPC   C2B 5591  25.293  23.552   6.375 -0.0801  0.1001 -0.1305
  459PAPC   C3B 5592  25.543  23.464   5.938 -0.2060 -0.2339  0.1152
  459PAPC   C4B 5593  25.780  23.489   5.482 -0.1131 -0.3260  0.1198
  460PAPC   NC3 5594  12.310  20.482   7.367 -0.0858 -0.0010  0.0554
  460PAPC   PO4 5595  11.933  20.417   7.257 -0.0055  0.1368  0.1113
  460PAPC   GL1 5596  12.010  20.587   6.877  0.2070  0.0688  0.2713
  460PAPC   GL2 5597  12.273  20.571   6.883 -0.0919 -0.1865  0.0103
  460PAPC   C1A 5598  11.848  20.609   6.496  0.1652  0.2819  0.1121
  460PAPC   D2A 5599  11.874  20.697   6.174  0.2216 -0.1151 -0.2392
  460PAPC   D3A 5600  11.843  20.772   5.725 -0.2133 -0.3083 -0.0143
  460PAPC   D4A 5601  11.556  20.602   5.414 -0.1272 -0.3118 -0.0583
  460PAPC   C5A 5602  11.691  20.635   4.951  0.4014  0.0347 -0.0208
  460PAPC   C1B 5603  12.364  20.723   6.587  0.0784 -0.0563 -0.0757
  460PAPC   C2B 5604  12.330  20.506   6.240  0.1074 -0.1250  0.4318
  460PAPC   C3B 5605  12.269  20.326   5.798  0.1377 -0.1035 -0.0160
  460PAPC   C4B 5606  12.123  20.462   5.348  0.0580  0.2575 -0.1545
  461PAPC   NC3 5607  22.730  17.478   7.005  0.0822  0.1334 -0.3716
  461PAPC   PO4 5608  22.777  17.064   7.093  0.1402 -0.1436 -0.1185
  461PAPC   GL1 5609  23.094  17.008   6.767  0.0073  0.0889 -0.2408
  461PAPC   GL2 5610  22.907  17.246   6.623  0.3018 -0.4087  0.0965
  461PAPC   C1A 5611  23.199  16.807   6.548 -0.2485  0.1813 -0.0019
  461PAPC   D2A 5612  23.213  16.517   6.312  0.0817 -0.1615  0.0978
  461PAPC   D3A 5613  23.214  16.592   5.814  0.1667 -0.1175  0.2683
  461PAPC   D4A 5614  23.291  16.982   5.601 -0.1917  0.0144  0.0030
  461PAPC   C5A 5615  23.703  16.642   5.510 -0.1337 -0.0301 -0.2161
  461PAPC   C1B 5616  23.027  17.224   6.218 -0.0846  0.1068  0.1335
  461PAPC   C2B 5617  23.209  17.426   5.926  0.1082 -0.1498  0.1579
  461PAPC   C3B 5618  23.325  17.911   5.861  0.1917  0.0040  0.1333
  461PAPC   C4B 5619  23.529  18.141   5.437 -0.1198  0.0304 -0.0248
  462PAPC   NC3 5620   4.965  22.636   7.552  0.0979 -0.0299  0.1892
  462PAPC   PO4 5621   4.666  22.318   7.701 -0.1860 -0.0704 -0.0021
  462PAPC   GL1 5622   4.528  22.198   7.280  0.0937  0.1722 -0.2470
  462PAPC   GL2 5623   4.300  22.208   7.247  0.1269 -0.4742  0.1266
  462PAPC   C1A 5624   4.744  22.462   7.149  0.2394 -0.1025 -0.2638
  462PAPC   D2A 5625   4.798  22.812   6.974 -0.1586  0.0980 -0.0816
  462PAPC   D3A 5626   4.971  23.164   6.890  0.0815  0.0947  0.1420
  462PAPC   D4A 5627   5.171  23.347   6.593 -0.1504 -0.0073 -0.1704
  462PAPC   C5A 5628   5.467  23.234   6.198  0.2706  0.2550 -0.0829
  462PAPC   C1B 5629   4.179  22.477   7.041 -0.1433 -0.5294  0.5295
  462PAPC   C2B 5630   4.044  22.328   6.642 -0.1570  0.3763  0.2103
  462PAPC   C3B 5631   4.142  22.336   6.138  0.3153 -0.3575  0.0329
  462PAPC   C4B 5632   3.872  22.564   5.819 -0.3018  0.1836  0.2585
  463PAPC   NC3 5633  21.652  21.840   7.657  0.0905 -0.2470  0.0715
  463PAPC   PO4 5634  21.506  22.087   7.390  0.0421  0.0872  0.1922
  463PAPC   GL1 5635  21.496  22.043   6.975 -0.0435  0.1610 -0.0234
  463PAPC   GL2 5636  21.768  22.185   7.000  0.2317 -0.2020  0.2515
  463PAPC   C1A 5637  21.339  22.055   6.648  0.0584  0.0803  0.0091
  463PAPC   D2A 5638  21.319  22.303   6.310  0.4930  0.0565 -0.1521
  463PAPC   D3A 5639  21.191  22.325   5.843  0.2477  0.1989  0.1559
  463PAPC   D4A 5640  21.163  22.547   5.493  0.1412 -0.0571  0.1772
  463PAPC   C5A 5641  21.627  22.672   5.607 -0.1401 -0.0223 -0.1593
  463PAPC   C1B 5642  21.620  22.443   6.790 -0.2853 -0.3420 -0.3406
  463PAPC   C2B 5643  21.719  22.675   6.420  0.1237  0.0118 -0.1344
  463PAPC   C3B 5644  21.975  22.749   5.984 -0.2264 -0.1500 -0.0420
  463PAPC   C4B 5645  22.233  23.129   6.068 -0.2665  0.2006 -0.3936
  464PAPC   NC3 5646  20.042  21.683   7.757 -0.0793  0.0470  0.3350
  464PAPC   PO4 5647  20.261  21.933   7.512  0.0673  0.0183 -0.0994
  464PAPC   GL1 5648  20.239  21.842   7.043  0.2751 -0.4267 -0.0905
  464PAPC   GL2 5649  20.247  22.155   7.020 -0.2368 -0.3258 -0.5427
  464PAPC   C1A 5650  20.100  21.723   6.680  0.2347 -0.0700 -0.1434
  464PAPC   D2A 5651  19.869  21.719   6.316 -0.2184 -0.0989  0.0014
  464PAPC   D3A 5652  19.995  21.965   6.017  0.0283 -0.0192 -0.1210
  464PAPC   D4A 5653  20.441  21.981   6.116  0.1538 -0.0193  0.2212
  464PAPC   C5A 5654  20.838  22.215   6.295 -0.1840 -0.1801  0.1628
  464PAPC   C1B 5655  20.099  22.255   6.677  0.3059 -0.0864 -0.0837
  464PAPC   C2B 5656  20.018  22.412   6.296  0.0894  0.2454 -0.0030
  464PAPC   C3B 5657  20.135  22.635   5.855 -0.2410  0.0632  0.1182
  464PAPC   C4B 5658  20.240  22.709   5.386 -0.0323 -0.0572 -0.0617
  465PAPC   NC3 5659  19.246  20.946   7.749 -0.0953 -0.0717 -0.0113
  465PAPC   PO4 5660  18.893  20.820   7.853 -0.0194 -0.2616 -0.2564
  465PAPC   GL1 5661  18.691  20.907   7.504  0.1312 -0.1781 -0.3190
  465PAPC   GL2 5662  18.937  20.798   7.349  0.2940 -0.2882  0.0513
  465PAPC   C1A 5663  18.759  21.186   7.272  0.0760  0.0060 -0.2666
  465PAPC   D2A 5664  18.874  21.433   6.988 -0.2982  0.1568  0.2747
  465PAPC   D3A 5665  18.826  21.594   6.589  0.3305 -0.1178  0.1434
  465PAPC   D4A 5666  18.434  21.547   6.400  0.2228 -0.1289 -0.3143
  465PAPC   C5A 5667  18.607  21.573   5.990  0.0208  0.0816  0.0593
  465PAPC   C1B 5668  19.100  20.971   7.080  0.2322  0.3217  0.2060
  465PAPC   C2B 5669  19.119  21.006   6.650  0.1690 -0.1016  0.2783
  465PAPC   C3B 5670  19.027  21.266   6.238  0.1984  0.2234 -0.2868
  465PAPC   C4B 5671  19.126  21.541   5.827  0.1892 -0.1722  0.1392
  466PAPC   NC3 5672  17.162   2.303   7.430  0.0903 -0.0281 -0.2140
  466PAPC   PO4 5673  17.051   2.657   7.567 -0.2421 -0.4294  0.2058
  466PAPC   GL1 5674  16.675   2.619   7.315  0.3745  0.3591  0.1318
  466PAPC   GL2 5675  16.793   2.926   7.176 -0.1278  0.3703  0.0006
  466PAPC   C1A 5676  16.434   2.622   6.987 -0.2411 -0.1812 -0.2793
  466PAPC   D2A 5677  16.101   2.822   6.812 -0.1102  0.1977 -0.3367
  466PAPC   D3A 5678  16.073   2.893   6.386 -0.1864  0.1586  0.2695
  466PAPC   D4A 5679  16.211   2.657   6.054 -0.0114 -0.3995  0.1765
  466PAPC   C5A 5680  16.347   2.210   5.805 -0.2240 -0.0901  0.1151
  466PAPC   C1B 5681  16.668   3.075   6.843 -0.4710  0.2147 -0.4108
  466PAPC   C2B 5682  16.306   3.253   6.727 -0.2510 -0.3185  0.1626
  466PAPC   C3B 5683  16.001   3.590   6.444 -0.4422  0.0091  0.0105
  466PAPC   C4B 5684  15.702   3.537   6.170  0.0062 -0.0988  0.0003
  467PAPC   NC3 5685  16.530  20.827   8.016  0.3217 -0.0946 -0.1805
  467PAPC   PO4 5686  16.900  20.777   8.033  0.0723 -0.1657 -0.0254
  467PAPC   GL1 5687  17.078  20.811   7.632 -0.1130  0.1882 -0.0716
  467PAPC   GL2 5688  16.976  20.633   7.486  0.3231  0.3826 -0.0735
  467PAPC   C1A 5689  17.279  21.043   7.387 -0.0402 -0.2416  0.0885
  467PAPC   D2A 5690  17.097  21.336   7.194  0.1597 -0.0995  0.0735
  467PAPC   D3A 5691  17.141  21.462   6.744 -0.0126  0.0923  0.1253
  467PAPC   D4A 5692  17.023  21.380   6.352  0.0921 -0.2940 -0.1676
  467PAPC   C5A 5693  17.346  21.591   5.965 -0.1964  0.3379 -0.1133
  467PAPC   C1B 5694  16.855  20.669   7.120 -0.0978 -0.3413 -0.0186
  467PAPC   C2B 5695  16.617  20.745   6.755 -0.2490  0.3119 -0.0213
  467PAPC   C3B 5696  16.301  20.715   6.423  0.1364  0.0058 -0.0561
  467PAPC   C4B 5697  15.941  20.526   6.154  0.1359  0.0770  0.2315
  468PAPC   NC3 5698   4.383   4.552   7.644 -0.1202 -0.1085 -0.0038
  468PAPC   PO4 5699   4.704   4.754   7.527 -0.2326 -0.0013  0.2442
  468PAPC   GL1 5700   4.704   4.887   7.091 -0.1727 -0.3224 -0.2764
  468PAPC   GL2 5701   4.963   5.013   7.071  0.0447 -0.2693 -0.0491
  468PAPC   C1A 5702   4.558   4.824   6.771  0.4729 -0.2110 -0.2727
  468PAPC   D2A 5703   4.279   4.974   6.532  0.1094 -0.0009 -0.1353
  468PAPC   D3A 5704   4.297   4.771   6.172 -0.4044 -0.0037  0.2650
  468PAPC   D4A 5705   3.983   4.681   5.845 -0.2830 -0.0083  0.2294
  468PAPC   C5A 5706   3.684   4.341   5.566  0.1074 -0.1518 -0.0475
  468PAPC   C1B 5707   4.931   4.957   6.708  0.1661 -0.1798  0.1296
  468PAPC   C2B 5708   4.730   5.051   6.382  0.0665  0.0455 -0.1720
  468PAPC   C3B 5709   4.531   5.188   5.930  0.1183 -0.1247 -0.0376
  468PAPC   C4B 5710   4.333   5.375   5.630  0.1166 -0.1803 -0.3738
  469PAPC   NC3 5711  24.940   7.482   7.774 -0.1388 -0.0262 -0.2861
  469PAPC   PO4 5712  25.080   7.840   7.871  0.2908  0.0745  0.3452
  469PAPC   GL1 5713  25.125   7.978   7.496 -0.0546  0.4667 -0.2922
  469PAPC   GL2 5714  25.312   7.760   7.378  0.3035 -0.0004  0.1067
  469PAPC   C1A 5715  24.876   8.219   7.289  0.1548  0.0266  0.1153
  469PAPC   D2A 5716  24.481   8.282   7.233 -0.0605  0.0307 -0.0755
  469PAPC   D3A 5717  24.563   8.146   6.783  0.0797  0.0091 -0.3363
  469PAPC   D4A 5718  24.805   8.009   6.436  0.0434  0.0807 -0.0873
  469PAPC   C5A 5719  24.701   8.029   5.949  0.3148  0.0498  0.0906
  469PAPC   C1B 5720  25.297   7.591   7.052  0.1781 -0.0297  0.0487
  469PAPC   C2B 5721  25.393   7.493   6.720 -0.1300 -0.2851  0.1254
  469PAPC   C3B 5722  25.386   7.377   6.217 -0.0303  0.0079 -0.1370
  469PAPC   C4B 5723  25.516   6.979   5.955 -0.1393  0.0162  0.1053
  470PAPC   NC3 5724   6.110  25.882   7.894  0.1448 -0.5228  0.3286
  470PAPC   PO4 5725   5.724  25.916   7.786 -0.0217  0.2046 -0.1817
  470PAPC   GL1 5726   5.542  25.974   7.458 -0.0416  0.0208  0.1432
  470PAPC   GL2 5727   5.492  25.647   7.421  0.0226 -0.0205  0.0607
  470PAPC   C1A 5728   5.297  26.152   7.272 -0.0395 -0.0022  0.3959
  470PAPC   D2A 5729   5.221  26.416   6.987  0.0072  0.2085 -0.0379
  470PAPC   D3A 5730   5.318  26.542   6.595  0.3524 -0.1995  0.0691
  470PAPC   D4A 5731   5.351  26.366   6.201 -0.2225  0.2333  0.0093
  470PAPC   C5A 5732   5.351  25.925   5.985  0.3720  0.1332 -0.1904
  470PAPC   C1B 5733   5.305  25.428   7.179  0.0415 -0.1408 -0.1116
  470PAPC   C2B 5734   5.026  25.382   6.845  0.1701 -0.3203 -0.3268
  470PAPC   C3B 5735   5.101  25.207   6.459  0.0678  0.2799  0.2088
  470PAPC   C4B 5736   4.909  25.159   5.947  0.1342  0.1265  0.0699
  471PAPC   NC3 5737  16.523  25.487   7.658  0.0176 -0.1074  0.1481
  471PAPC   PO4 5738  16.338  25.155   7.697  0.0996  0.2930  0.1408
  471PAPC   GL1 5739  15.995  25.167   7.304  0.0692  0.0768 -0.4028
  471PAPC   GL2 5740  16.151  25.448   7.327 -0.4367  0.0796 -0.1897
  471PAPC   C1A 5741  15.959  25.222   6.945 -0.2340 -0.1176  0.1068
  471PAPC   D2A 5742  16.139  25.232   6.571  0.0248  0.0541  0.1196
  471PAPC   D3A 5743  15.906  25.192   6.147  0.2341 -0.0200  0.0533
  471PAPC   D4A 5744  15.428  25.164   6.182 -0.2521  0.0074  0.1239
  471PAPC   C5A 5745  15.368  24.709   6.289  0.1216 -0.0101  0.3440
  471PAPC   C1B 5746  16.229  25.586   6.980  0.5188 -0.1835  0.2870
  471PAPC   C2B 5747  16.238  25.747   6.577  0.0963 -0.0470  0.1979
  471PAPC   C3B 5748  16.000  25.997   6.248 -0.3977  0.2309 -0.1125
  471PAPC   C4B 5749  15.765  26.197   5.903  0.1500  0.0899  0.0501
  472PAPC   NC3 5750   5.903  18.892   7.615  0.0489  0.2320 -0.0914
  472PAPC   PO4 5751   5.953  18.669   7.279  0.3176 -0.4659 -0.1410
  472PAPC   GL1 5752   6.026  18.676   6.854 -0.1060  0.2015  0.0733
  472PAPC   GL2 5753   6.229  18.518   6.878  0.2539 -0.0411 -0.2695
  472PAPC   C1A 5754   6.033  18.680   6.533  0.8979  0.0748  0.0570
  472PAPC   D2A 5755   6.058  18.819   6.136 -0.0333  0.1817 -0.0782
  472PAPC   D3A 5756   5.933  19.002   5.734 -0.0598  0.0760 -0.1394
  472PAPC   D4A 5757   5.927  19.279   5.389 -0.4379 -0.1016 -0.2720
  472PAPC   C5A 5758   5.692  19.698   5.211 -0.1826  0.0168 -0.0595
  472PAPC   C1B 5759   6.428  18.513   6.577 -0.4310 -0.2588  0.1091
  472PAPC   C2B 5760   6.547  18.640   6.206  0.1510 -0.1019  0.1519
  472PAPC   C3B 5761   6.584  18.732   5.707 -0.0357  0.0941  0.2117
  472PAPC   C4B 5762   6.757  18.947   5.298  0.0421 -0.0649  0.3254
  473PAPC   NC3 5763   2.952  15.794   7.388  0.0820 -0.0342  0.0783
  473PAPC   PO4 5764   3.127  16.127   7.213  0.0922  0.1971  0.1638
  473PAPC   GL1 5765   2.795  16.182   6.926  0.2172 -0.0289  0.2536
  473PAPC   GL2 5766   2.930  16.426   6.846 -0.1025 -0.3117 -0.1849
  473PAPC   C1A 5767   2.590  16.020   6.628 -0.1847 -0.1689  0.1527
  473PAPC   D2A 5768   2.592  16.139   6.226  0.2816 -0.2289 -0.1199
  473PAPC   D3A 5769   2.352  16.269   5.805  0.2939 -0.1033 -0.1091
  473PAPC   D4A 5770   2.373  16.275   5.349 -0.0238 -0.1305 -0.0500
  473PAPC   C5A 5771   2.402  15.802   5.225 -0.2707  0.0239  0.1583
  473PAPC   C1B 5772   2.964  16.586   6.544  0.1256 -0.0826  0.1505
  473PAPC   C2B 5773   3.180  16.740   6.260  0.1206  0.1442  0.0373
  473PAPC   C3B 5774   3.021  17.082   5.982  0.1166  0.3460 -0.1337
  473PAPC   C4B 5775   2.762  17.437   5.674  0.0595  0.0030 -0.3417
  474PAPC   NC3 5776  22.653  27.360   7.672  0.0344  0.0959 -0.0993
  474PAPC   PO4 5777  22.327  27.589   7.523  0.0656  0.0226  0.1244
  474PAPC   GL1 5778  22.135  27.699   7.121  0.4134  0.0671  0.0766
  474PAPC   GL2 5779  21.897  27.797   7.312 -0.0874 -0.3393  0.1785
  474PAPC   C1A 5780  22.236  27.961   6.876  0.0917 -0.2893 -0.3200
  474PAPC   D2A 5781  22.285  27.894   6.484 -0.0222 -0.3975  0.1146
  474PAPC   D3A 5782  22.200  27.913   6.004  0.1079  0.1344  0.4197
  474PAPC   D4A 5783  22.120  27.656   5.590 -0.0907 -0.0234  0.3141
  474PAPC   C5A 5784  22.379  27.251   5.665  0.1214  0.0063 -0.2820
  474PAPC   C1B 5785  21.644  28.023   7.248  0.3009  0.1613  0.1096
  474PAPC   C2B 5786  21.299  28.160   7.062 -0.1719 -0.0385  0.2547
  474PAPC   C3B 5787  21.340  28.277   6.666 -0.0251  0.0013 -0.0312
  474PAPC   C4B 5788  21.271  28.506   6.190 -0.0626  0.2641  0.2128
  475PAPC   NC3 5789  21.125   4.666   7.679  0.2624 -0.1737  0.0277
  475PAPC   PO4 5790  20.998   4.280   7.610  0.0173  0.0899  0.1170
  475PAPC   GL1 5791  20.955   4.280   7.188 -0.1356  0.1560  0.1144
  475PAPC   GL2 5792  21.072   4.553   7.173 -0.0298  0.0912 -0.2866
  475PAPC   C1A 5793  20.871   4.291   6.818 -0.2269  0.1421 -0.0789
  475PAPC   D2A 5794  20.804   4.524   6.479 -0.2298  0.2889 -0.1491
  475PAPC   D3A 5795  20.753   4.729   6.100 -0.1422  0.1621  0.2929
  475PAPC   D4A 5796  21.159   4.545   6.056 -0.0199 -0.2034  0.1950
  475PAPC   C5A 5797  21.050   4.857   5.665 -0.3044 -0.1425 -0.0497
  475PAPC   C1B 5798  21.176   4.649   6.795 -0.1101  0.4647 -0.5936
  475PAPC   C2B 5799  21.395   4.643   6.441 -0.0935  0.1135 -0.0713
  475PAPC   C3B 5800  21.745   4.556   6.116 -0.2985 -0.0360  0.0610
  475PAPC   C4B 5801  22.199   4.730   5.924 -0.2089 -0.2838  0.1298
  476PAPC   NC3 5802  15.944   4.084   7.265 -0.1966  0.1963 -0.0371
  476PAPC   PO4 5803  15.901   4.416   7.459 -0.3185 -0.1363 -0.2911
  476PAPC   GL1 5804  16.033   4.647   7.035  0.0218 -0.0718  0.1630
  476PAPC   GL2 5805  15.730   4.576   7.096 -0.2157  0.4151  0.2363
  476PAPC   C1A 5806  16.127   4.566   6.695 -0.0030 -0.3078  0.2587
  476PAPC   D2A 5807  16.047   4.424   6.318 -0.2612 -0.2703 -0.0253
  476PAPC   D3A 5808  15.646   4.669   6.365 -0.0732  0.0112  0.1994
  476PAPC   D4A 5809  15.817   4.960   6.136 -0.0789 -0.0607 -0.0194
  476PAPC   C5A 5810  15.636   5.235   6.487  0.0331 -0.0613  0.2768
  476PAPC   C1B 5811  15.593   4.479   6.813  0.2056  0.2112  0.2711
  476PAPC   C2B 5812  15.298   4.408   6.560  0.1470  0.0280  0.0498
  476PAPC   C3B 5813  15.258   4.349   6.075  0.4798  0.1077 -0.2343
  476PAPC   C4B 5814  15.389   4.191   5.627 -0.1085  0.3305 -0.2183
  477PAPC   NC3 5815  24.654   4.066   8.093 -0.1592  0.1970 -0.3668
  477PAPC   PO4 5816  24.305   4.064   7.906  0.0219 -0.3162  0.0468
  477PAPC   GL1 5817  24.498   3.953   7.518  0.2084  0.3172 -0.1064
  477PAPC   GL2 5818  24.227   3.938   7.396 -0.2223  0.0630 -0.1172
  477PAPC   C1A 5819  24.557   4.106   7.215 -0.4460  0.1360 -0.0402
  477PAPC   D2A 5820  24.564   4.467   7.067 -0.0013  0.0708 -0.0980
  477PAPC   D3A 5821  24.728   4.689   6.728  0.0786 -0.2238  0.1948
  477PAPC   D4A 5822  24.865   4.839   6.315  0.0751  0.0328  0.0984
  477PAPC   C5A 5823  24.982   4.595   5.951 -0.4160  0.0022  0.0102
  477PAPC   C1B 5824  24.162   4.218   7.174 -0.2059  0.1954 -0.1645
  477PAPC   C2B 5825  24.242   4.309   6.786  0.2026  0.2185 -0.1675
  477PAPC   C3B 5826  24.194   4.338   6.253 -0.0430 -0.0924  0.0976
  477PAPC   C4B 5827  24.210   4.347   5.732  0.1764  0.1161  0.0270
  478PAPC   NC3 5828   5.488   6.179   7.470 -0.3030 -0.2415  0.3331
  478PAPC   PO4 5829   5.337   6.506   7.397 -0.1073 -0.0406 -0.2963
  478PAPC   GL1 5830   5.243   6.230   7.064  0.2548 -0.2837 -0.1396
  478PAPC   GL2 5831   5.100   6.446   6.949  0.0451 -0.2325  0.0731
  478PAPC   C1A 5832   5.232   5.940   6.866  0.0025  0.1946 -0.0639
  478PAPC   D2A 5833   5.162   5.817   6.464 -0.2162  0.1982 -0.4156
  478PAPC   D3A 5834   5.017   6.063   6.065  0.1802 -0.2027  0.0132
  478PAPC   D4A 5835   5.082   5.985   5.657  0.0800 -0.2477 -0.1539
  478PAPC   C5A 5836   5.105   5.735   5.257 -0.0518 -0.0152 -0.1892
  478PAPC   C1B 5837   5.070   6.374   6.566 -0.2987 -0.0919  0.3569
  478PAPC   C2B 5838   4.776   6.481   6.282  0.0382 -0.0771 -0.1441
  478PAPC   C3B 5839   4.709   6.396   5.817 -0.1168  0.1413  0.1928
  478PAPC   C4B 5840   4.878   6.286   5.338 -0.3702  0.0305 -0.2035
  479PAPC   NC3 5841   9.639  15.288   7.733 -0.2144  0.3211  0.0825
  479PAPC   PO4 5842   9.860  15.581   7.828  0.2520 -0.0680 -0.0404
  479PAPC   GL1 5843   9.843  15.687   7.458  0.0542 -0.0797  0.1373
  479PAPC   GL2 5844   9.611  15.864   7.379  0.0233  0.2523  0.0409
  479PAPC   C1A 5845  10.071  15.667   7.205  0.0357 -0.0065 -0.1247
  479PAPC   D2A 5846  10.314  15.604   6.943  0.0510  0.2865  0.2142
  479PAPC   D3A 5847  10.399  15.774   6.518  0.0138 -0.1886 -0.4482
  479PAPC   D4A 5848  10.445  15.940   6.101  0.3017 -0.0401 -0.1503
  479PAPC   C5A 5849  10.341  16.041   5.593  0.2757  0.0329  0.1308
  479PAPC   C1B 5850   9.382  15.805   7.127  0.2848  0.0577  0.0333
  479PAPC   C2B 5851   9.319  15.770   6.713  0.0798 -0.2618 -0.1366
  479PAPC   C3B 5852   9.509  15.771   6.264 -0.0649 -0.0209 -0.0797
  479PAPC   C4B 5853   9.584  15.684   5.803  0.1151  0.3128 -0.2141
  480PAPC   NC3 5854  23.705   2.726   7.625 -0.3373  0.0603  0.0138
  480PAPC   PO4 5855  23.867   2.364   7.553 -0.1078  0.5970 -0.2393
  480PAPC   GL1 5856  24.155   2.319   7.254  0.0083  0.1746  0.1798
  480PAPC   GL2 5857  24.271   2.594   7.325 -0.4190 -0.0311 -0.0295
  480PAPC   C1A 5858  24.176   2.266   6.890  0.0879 -0.2964 -0.0857
  480PAPC   D2A 5859  24.271   2.174   6.466 -0.5157 -0.2923 -0.2351
  480PAPC   D3A 5860  23.872   2.096   6.163 -0.0287 -0.3094  0.1065
  480PAPC   D4A 5861  23.847   2.451   5.889  0.5330  0.0556 -0.0449
  480PAPC   C5A 5862  23.743   2.643   5.475 -0.0323  0.4120 -0.3572
  480PAPC   C1B 5863  24.512   2.800   7.116  0.0688  0.2148  0.4143
  480PAPC   C2B 5864  24.793   2.852   6.807 -0.2855  0.1559  0.3476
  480PAPC   C3B 5865  25.075   2.988   6.437  0.2851 -0.2106  0.1670
  480PAPC   C4B 5866  25.429   3.014   6.050  0.0229 -0.1135  0.1161
  481PAPC   NC3 5867  12.775   8.371   8.429 -0.0926 -0.0907 -0.0890
  481PAPC   PO4 5868  12.541   8.596   8.232 -0.1581  0.1544 -0.0395
  481PAPC   GL1 5869  12.606   8.710   7.775  0.3719 -0.5909  0.1851
  481PAPC   GL2 5870  12.550   8.436   7.739  0.0891  0.1787 -0.1237
  481PAPC   C1A 5871  12.348   8.967   7.549 -0.2375  0.0496 -0.2945
  481PAPC   D2A 5872  12.132   9.148   7.791  0.1146 -0.1315  0.0279
  481PAPC   D3A 5873  12.006   9.526   7.599  0.1038 -0.0188 -0.3529
  481PAPC   D4A 5874  12.061   9.522   7.150  0.1155 -0.1231 -0.1585
  481PAPC   C5A 5875  12.305   9.229   6.911 -0.1118 -0.3311 -0.0146
  481PAPC   C1B 5876  12.731   8.157   7.558  0.0093 -0.0205 -0.0837
  481PAPC   C2B 5877  12.821   7.794   7.429 -0.1636  0.1232 -0.2122
  481PAPC   C3B 5878  12.804   7.773   6.905  0.1973  0.4111  0.0497
  481PAPC   C4B 5879  12.512   8.012   6.610 -0.0179 -0.1676  0.1665
  482PAPC   NC3 5880  19.225   3.500   7.875 -0.0398 -0.0915  0.0551
  482PAPC   PO4 5881  19.417   3.547   7.520 -0.1167  0.0673  0.1320
  482PAPC   GL1 5882  19.344   3.569   7.135  0.1648 -0.0315 -0.2815
  482PAPC   GL2 5883  19.167   3.342   7.083 -0.1987 -0.0911 -0.1477
  482PAPC   C1A 5884  19.599   3.655   6.884 -0.3702 -0.4362  0.0912
  482PAPC   D2A 5885  19.785   3.724   6.524 -0.0234 -0.0052 -0.0754
  482PAPC   D3A 5886  19.755   3.631   6.092 -0.3737  0.2104 -0.1738
  482PAPC   D4A 5887  20.090   3.655   5.792  0.2294  0.0657  0.0773
  482PAPC   C5A 5888  20.144   3.459   5.375 -0.1412 -0.0832 -0.0722
  482PAPC   C1B 5889  19.104   3.329   6.727 -0.1031  0.0379  0.3337
  482PAPC   C2B 5890  19.123   3.202   6.286 -0.0762 -0.1022  0.1231
  482PAPC   C3B 5891  18.987   3.121   5.767 -0.3438 -0.0209  0.0763
  482PAPC   C4B 5892  18.941   2.825   5.372  0.1705  0.1381 -0.0675
  483PAPC   NC3 5893  10.585  21.362   7.218  0.1636 -0.0635  0.4598
  483PAPC   PO4 5894  10.493  21.718   7.086 -0.0688 -0.2789 -0.0953
  483PAPC   GL1 5895  10.221  22.011   6.843  0.1552  0.2644 -0.0374
  483PAPC   GL2 5896  10.047  21.870   6.957  0.0134 -0.0937  0.3761
  483PAPC   C1A 5897  10.133  22.153   6.462  0.0531  0.0746  0.1177
  483PAPC   D2A 5898  10.280  21.971   6.114 -0.4288  0.1252 -0.0320
  483PAPC   D3A 5899   9.906  21.876   5.829  0.1949  0.0663  0.1710
  483PAPC   D4A 5900   9.521  22.117   5.783 -0.2334  0.2583 -0.2489
  483PAPC   C5A 5901   9.250  22.161   5.404  0.1130 -0.0802 -0.1831
  483PAPC   C1B 5902   9.904  21.790   6.631 -0.1377  0.1311 -0.6235
  483PAPC   C2B 5903   9.734  21.801   6.288 -0.1225 -0.0572 -0.0955
  483PAPC   C3B 5904   9.510  21.576   5.915 -0.0905 -0.1158 -0.0832
  483PAPC   C4B 5905   9.315  21.137   5.743 -0.0189 -0.2708  0.0536
  484PAPC   NC3 5906   6.905  21.502   7.900 -0.0419  0.0541 -0.1302
  484PAPC   PO4 5907   7.044  21.680   7.579  0.3237  0.1555 -0.1638
  484PAPC   GL1 5908   6.916  21.651   7.146 -0.2362 -0.3729  0.0179
  484PAPC   GL2 5909   7.090  21.561   7.151  0.5294  0.1251 -0.0790
  484PAPC   C1A 5910   7.045  21.999   7.043  0.0922  0.1527  0.0502
  484PAPC   D2A 5911   7.303  22.305   6.988  0.0736  0.0040 -0.2164
  484PAPC   D3A 5912   7.443  22.546   6.696 -0.2607  0.2114 -0.0077
  484PAPC   D4A 5913   7.768  22.802   6.611 -0.2246  0.1093 -0.0540
  484PAPC   C5A 5914   7.943  23.009   6.302  0.0679  0.2860  0.1530
  484PAPC   C1B 5915   7.207  21.497   6.805 -0.1247 -0.1434 -0.0838
  484PAPC   C2B 5916   7.067  21.437   6.415 -0.2186 -0.0717  0.1290
  484PAPC   C3B 5917   7.069  21.489   5.912 -0.0161  0.1424 -0.0858
  484PAPC   C4B 5918   7.016  21.505   5.435 -0.0564  0.0439  0.2685
  485PAPC   NC3 5919   1.229   7.622   8.218 -0.0828 -0.2164 -0.1126
  485PAPC   PO4 5920   1.600   7.817   8.258 -0.4044 -0.0483  0.3522
  485PAPC   GL1 5921   1.798   7.902   7.899  0.1811  0.3387  0.0578
  485PAPC   GL2 5922   1.586   7.984   7.800  0.2634 -0.3218  0.0639
  485PAPC   C1A 5923   2.011   7.635   7.692  0.0830  0.2604  0.3009
  485PAPC   D2A 5924   2.169   7.666   7.334 -0.0201  0.0102 -0.4032
  485PAPC   D3A 5925   2.475   7.506   7.159 -0.3096 -0.0175  0.0649
  485PAPC   D4A 5926   2.636   7.300   6.751  0.0580  0.2146 -0.0125
  485PAPC   C5A 5927   3.078   7.346   6.983 -0.0412 -0.3694 -0.0368
  485PAPC   C1B 5928   1.537   7.749   7.524  0.1611  0.1407 -0.0296
  485PAPC   C2B 5929   1.418   7.754   7.122  0.0310  0.0307  0.1350
  485PAPC   C3B 5930   1.399   7.683   6.679 -0.0586  0.0739  0.0940
  485PAPC   C4B 5931   1.505   7.506   6.216  0.2258 -0.1715 -0.1003
  486PAPC   NC3 5932  22.560  14.675   7.072  0.2013 -0.1804  0.1358
  486PAPC   PO4 5933  22.314  14.376   7.020  0.0989  0.2605  0.1041
  486PAPC   GL1 5934  22.363  14.484   6.564 -0.4683  0.2792 -0.2623
  486PAPC   GL2 5935  22.431  14.730   6.625 -0.2983 -0.0156 -0.1051
  486PAPC   C1A 5936  22.386  14.402   6.225  0.1472  0.2860 -0.2525
  486PAPC   D2A 5937  22.069  14.263   6.078 -0.2888  0.0715  0.0697
  486PAPC   D3A 5938  22.074  13.932   5.770  0.0697  0.0453  0.2390
  486PAPC   D4A 5939  21.832  13.706   5.422 -0.1959  0.2653  0.1802
  486PAPC   C5A 5940  22.086  13.346   5.270 -0.2445  0.0980  0.3574
  486PAPC   C1B 5941  22.342  14.842   6.309  0.1374 -0.1912 -0.0343
  486PAPC   C2B 5942  22.348  14.659   5.916 -0.1522 -0.1695  0.1182
  486PAPC   C3B 5943  22.093  14.809   5.601  0.1853  0.0519  0.1351
  486PAPC   C4B 5944  21.879  14.604   5.137  0.2669 -0.1301 -0.1611
  487PAPC   NC3 5945  23.737  20.994   7.207 -0.2806 -0.0599 -0.0989
  487PAPC   PO4 5946  24.079  20.816   7.362  0.0087 -0.1577 -0.1305
  487PAPC   GL1 5947  24.236  20.667   6.988  0.1461  0.0994  0.0778
  487PAPC   GL2 5948  23.978  20.796   6.884  0.4307  0.1932  0.4421
  487PAPC   C1A 5949  24.501  20.719   6.709  0.1765  0.3066 -0.1599
  487PAPC   D2A 5950  24.755  20.494   6.532 -0.1040 -0.3354  0.0174
  487PAPC   D3A 5951  24.725  20.459   6.094 -0.0578 -0.2032 -0.2446
  487PAPC   D4A 5952  24.957  20.623   5.698 -0.0158  0.0077  0.0583
  487PAPC   C5A 5953  25.217  20.485   5.296 -0.1687 -0.1018  0.2234
  487PAPC   C1B 5954  24.124  20.989   6.633 -0.3036  0.1184  0.1325
  487PAPC   C2B 5955  24.365  20.949   6.275  0.0644 -0.1788  0.2877
  487PAPC   C3B 5956  24.446  21.067   5.850 -0.1488 -0.0449 -0.0685
  487PAPC   C4B 5957  24.718  21.415   5.503 -0.0095  0.3964  0.2900
  488PAPC   NC3 5958  14.448  21.559   7.542 -0.0327 -0.1519  0.1073
  488PAPC   PO4 5959  14.504  21.948   7.586  0.0462  0.2318 -0.1997
  488PAPC   GL1 5960  14.457  22.022   7.213 -0.0284 -0.2589  0.1019
  488PAPC   GL2 5961  14.255  22.147   7.085  0.1179  0.2312  0.4779
  488PAPC   C1A 5962  14.689  21.909   6.915 -0.0167 -0.0081  0.0256
  488PAPC   D2A 5963  14.922  21.687   6.671 -0.0898  0.1654  0.0645
  488PAPC   D3A 5964  14.985  21.621   6.239  0.1112 -0.1011 -0.2920
  488PAPC   D4A 5965  15.290  21.688   5.871 -0.0628 -0.0174  0.3485
  488PAPC   C5A 5966  15.117  21.736   5.440  0.1974 -0.0666 -0.0815
  488PAPC   C1B 5967  14.285  22.016   6.726  0.1665 -0.1184 -0.1101
  488PAPC   C2B 5968  14.478  21.742   6.506 -0.0916  0.1833 -0.0533
  488PAPC   C3B 5969  14.545  21.356   6.259  0.0033 -0.0088  0.1874
  488PAPC   C4B 5970  14.453  21.111   5.881  0.2323 -0.2835  0.3262
  489PAPC   NC3 5971  12.264   8.189   8.245 -0.2189  0.0628 -0.0982
  489PAPC   PO4 5972  11.984   8.063   7.972  0.0760 -0.5292 -0.0923
  489PAPC   GL1 5973  12.157   8.132   7.592 -0.1029 -0.0979  0.4970
  489PAPC   GL2 5974  12.034   7.931   7.412 -0.0292 -0.4786 -0.0259
  489PAPC   C1A 5975  12.164   8.396   7.398 -0.0296 -0.0589  0.1394
  489PAPC   D2A 5976  12.406   8.609   7.258 -0.1614  0.0042  0.1487
  489PAPC   D3A 5977  12.442   8.653   6.821 -0.2232  0.0314  0.0198
  489PAPC   D4A 5978  12.284   8.459   6.445 -0.0427 -0.2697 -0.0068
  489PAPC   C5A 5979  12.665   8.433   6.160  0.0927 -0.0201 -0.1109
  489PAPC   C1B 5980  11.827   7.908   7.099  0.0270 -0.2488  0.1781
  489PAPC   C2B 5981  11.761   7.945   6.656  0.0367  0.5036 -0.2053
  489PAPC   C3B 5982  12.074   7.920   6.325 -0.1141  0.3667 -0.4759
  489PAPC   C4B 5983  12.473   7.970   6.147 -0.0042 -0.1780 -0.1617
  490PAPC   NC3 5984  22.198  13.201   7.519 -0.1336 -0.1362 -0.0704
  490PAPC   PO4 5985  21.978  13.533   7.398  0.0620  0.3498  0.0771
  490PAPC   GL1 5986  22.070  13.634   7.011 -0.1543 -0.3462  0.1369
  490PAPC   GL2 5987  22.197  13.249   7.001  0.0787  0.1647 -0.4053
  490PAPC   C1A 5988  22.026  13.805   6.661 -0.2170  0.2256 -0.1757
  490PAPC   D2A 5989  22.285  14.032   6.528 -0.0610 -0.0476 -0.1436
  490PAPC   D3A 5990  22.610  13.956   6.287 -0.0758  0.0319 -0.2743
  490PAPC   D4A 5991  22.516  14.144   5.881 -0.1581  0.2761  0.1297
  490PAPC   C5A 5992  22.985  14.255   5.751  0.2216 -0.0050  0.4874
  490PAPC   C1B 5993  22.084  13.105   6.656 -0.2307 -0.0425 -0.0646
  490PAPC   C2B 5994  21.791  13.128   6.339  0.2095 -0.0135 -0.1155
  490PAPC   C3B 5995  21.483  13.081   5.939  0.1660 -0.0766 -0.5061
  490PAPC   C4B 5996  21.179  12.955   5.574  0.0622 -0.0943  0.0210
  491PAPC   NC3 5997  19.050  13.310   7.272  0.0798  0.0693 -0.0812
  491PAPC   PO4 5998  19.236  13.089   7.015 -0.2046  0.0871  0.1105
  491PAPC   GL1 5999  19.290  12.761   6.774  0.1183 -0.1863 -0.0091
  491PAPC   GL2 6000  19.031  12.792   6.703 -0.2606 -0.5207 -0.3529
  491PAPC   C1A 6001  19.489  12.578   6.550  0.1752 -0.0560  0.3386
  491PAPC   D2A 6002  19.243  12.333   6.306  0.0790  0.3255  0.1197
  491PAPC   D3A 6003  19.282  12.163   5.845 -0.0017  0.0532 -0.0674
  491PAPC   D4A 6004  19.432  11.746   5.690 -0.0053  0.0661  0.0291
  491PAPC   C5A 6005  19.850  12.020   5.553 -0.0323  0.2480 -0.1586
  491PAPC   C1B 6006  18.987  12.657   6.396  0.3942 -0.3707  0.3133
  491PAPC   C2B 6007  18.882  12.621   6.020  0.1488  0.0601  0.1035
  491PAPC   C3B 6008  19.019  12.497   5.516  0.0035  0.0437 -0.0037
  491PAPC   C4B 6009  19.085  12.503   5.031  0.4480 -0.0956  0.3836
  492PAPC   NC3 6010  16.711   9.230   7.285 -0.0046 -0.1858  0.2053
  492PAPC   PO4 6011  17.087   9.442   7.369  0.0183  0.0494 -0.1684
  492PAPC   GL1 6012  17.253   9.525   7.016  0.0183 -0.2149  0.0883
  492PAPC   GL2 6013  17.134   9.367   6.821  0.3897 -0.0832  0.1463
  492PAPC   C1A 6014  17.347   9.846   6.867  0.4116 -0.0400 -0.1775
  492PAPC   D2A 6015  17.700   9.732   6.791  0.3782  0.0964  0.1619
  492PAPC   D3A 6016  17.876   9.816   6.376  0.0642 -0.0308 -0.0513
  492PAPC   D4A 6017  17.937   9.756   5.890 -0.0226 -0.1413  0.1160
  492PAPC   C5A 6018  17.866  10.037   5.534  0.0333 -0.0479  0.0037
  492PAPC   C1B 6019  17.205   9.579   6.489 -0.1236  0.0029  0.0762
  492PAPC   C2B 6020  17.218   9.800   6.167  0.3709  0.0387 -0.1168
  492PAPC   C3B 6021  17.066  10.204   5.918  0.0237  0.1965  0.1307
  492PAPC   C4B 6022  16.715  10.438   5.668 -0.2260  0.0275 -0.0894
  493PAPC   NC3 6023   2.253  13.329   7.358  0.1342  0.1209 -0.0071
  493PAPC   PO4 6024   2.593  13.126   7.253  0.4574  0.0772 -0.2448
  493PAPC   GL1 6025   2.584  12.806   6.929  0.1329 -0.1850 -0.1164
  493PAPC   GL2 6026   2.845  12.821   6.895  0.4892 -0.1607 -0.2136
  493PAPC   C1A 6027   2.560  12.895   6.566  0.2137  0.3529 -0.1948
  493PAPC   D2A 6028   2.169  12.960   6.437  0.0153  0.0217  0.0788
  493PAPC   D3A 6029   1.836  12.905   6.058 -0.3189 -0.2790  0.1084
  493PAPC   D4A 6030   1.848  13.343   5.822  0.1834 -0.4546  0.3837
  493PAPC   C5A 6031   1.987  13.378   6.241 -0.4379 -0.1362  0.0924
  493PAPC   C1B 6032   2.956  12.897   6.563  0.1674 -0.2209 -0.0910
  493PAPC   C2B 6033   2.855  13.190   6.309 -0.1800  0.1781  0.3594
  493PAPC   C3B 6034   2.754  13.408   5.864 -0.1011 -0.3563 -0.1978
  493PAPC   C4B 6035   2.830  13.209   5.451  0.0610 -0.1578 -0.0689
  494PAPC   NC3 6036   0.466  20.234   8.412 -0.0467  0.0402  0.0338
  494PAPC   PO4 6037   0.616  20.153   8.056  0.0328 -0.0005 -0.0536
  494PAPC   GL1 6038   0.798  20.280   7.756 -0.0397  0.3259  0.2570
  494PAPC   GL2 6039   0.680  20.503   7.607 -0.0409  0.3625  0.1054
  494PAPC   C1A 6040   0.926  20.054   7.495  0.2391 -0.0006 -0.0711
  494PAPC   D2A 6041   0.987  19.864   7.236  0.0898  0.1287  0.0383
  494PAPC   D3A 6042   0.837  19.994   6.773 -0.2857  0.1558  0.2845
  494PAPC   D4A 6043   1.019  19.715   6.426 -0.1233  0.5142 -0.3296
  494PAPC   C5A 6044   1.442  19.660   6.560 -0.2873  0.1873  0.0519
  494PAPC   C1B 6045   0.543  20.291   7.315 -0.1651 -0.0122 -0.1765
  494PAPC   C2B 6046   0.460  20.284   6.907  0.1568  0.0971  0.0171
  494PAPC   C3B 6047   0.471  20.130   6.437 -0.2121  0.0496 -0.0259
  494PAPC   C4B 6048   0.786  20.404   6.085 -0.0967  0.1425 -0.0004
  495PAPC   NC3 6049   0.655  16.993   7.560 -0.0876 -0.2919  0.0220
  495PAPC   PO4 6050   0.310  16.732   7.485  0.2357  0.2738  0.4428
  495PAPC   GL1 6051   0.409  16.821   7.118  0.0790  0.3849 -0.1523
  495PAPC   GL2 6052   0.142  16.857   6.999 -0.1900 -0.3423  0.3106
  495PAPC   C1A 6053   0.718  16.978   6.969 -0.2309  0.1553  0.0983
  495PAPC   D2A 6054   0.668  17.341   7.207  0.4388  0.1415 -0.2270
  495PAPC   D3A 6055   0.343  17.304   6.898  0.3763 -0.2332 -0.0822
  495PAPC   D4A 6056   0.347  17.073   6.586  0.1020  0.0294 -0.0092
  495PAPC   C5A 6057   0.689  16.772   6.343 -0.0467 -0.0132  0.1890
  495PAPC   C1B 6058  -0.107  17.128   6.932  0.1870 -0.0855 -0.1453
  495PAPC   C2B 6059  -0.083  17.340   6.617  0.4869 -0.3622  0.1224
  495PAPC   C3B 6060  -0.215  17.520   6.175  0.2721 -0.1130 -0.1822
  495PAPC   C4B 6061  -0.304  17.885   5.851 -0.1751  0.0124 -0.3045
  496PAPC   NC3 6062  20.022  11.032   7.835 -0.1035 -0.1696 -0.1218
  496PAPC   PO4 6063  20.129  11.032   7.481 -0.1653  0.0736  0.4228
  496PAPC   GL1 6064  20.094  11.056   7.026 -0.2446 -0.1303  0.0570
  496PAPC   GL2 6065  20.154  11.355   7.013  0.3188 -0.5567 -0.0341
  496PAPC   C1A 6066  20.013  11.003   6.639  0.2117  0.2291 -0.1299
  496PAPC   D2A 6067  20.166  11.107   6.299 -0.3779  0.1304 -0.1196
  496PAPC   D3A 6068  20.448  11.150   5.940  0.0347 -0.2611 -0.1547
  496PAPC   D4A 6069  20.210  11.037   5.503 -0.1050 -0.1028 -0.1897
  496PAPC   C5A 6070  20.488  11.097   5.131 -0.1742 -0.2546 -0.2371
  496PAPC   C1B 6071  20.390  11.397   6.730  0.0754  0.2202  0.0196
  496PAPC   C2B 6072  20.664  11.472   6.384 -0.1157  0.2223 -0.1824
  496PAPC   C3B 6073  20.810  11.434   5.914  0.0696  0.1940  0.2249
  496PAPC   C4B 6074  20.673  11.642   5.404  0.4401 -0.1037 -0.0206
  497PAPC   NC3 6075   1.321  26.507   7.686  0.1879 -0.0045 -0.1718
  497PAPC   PO4 6076   1.311  26.927   7.749  0.0120  0.0151  0.2428
  497PAPC   GL1 6077   1.272  27.078   7.365 -0.0149 -0.1324 -0.1853
  497PAPC   GL2 6078   1.626  27.081   7.391  0.1481  0.3284 -0.0785
  497PAPC   C1A 6079   1.074  27.000   7.045  0.2034  0.0693 -0.2551
  497PAPC   D2A 6080   0.951  26.769   6.735 -0.1104 -0.0727  0.0325
  497PAPC   D3A 6081   0.824  26.594   6.306 -0.3591  0.1093 -0.0904
  497PAPC   D4A 6082   0.787  26.500   5.920 -0.0756  0.0222 -0.0199
  497PAPC   C5A 6083   0.337  26.297   5.849 -0.0626  0.1360  0.0631
  497PAPC   C1B 6084   1.944  27.168   7.307  0.1371 -0.1785  0.2936
  497PAPC   C2B 6085   1.828  27.022   6.910  0.2080  0.0877 -0.0717
  497PAPC   C3B 6086   1.798  26.964   6.458  0.0653 -0.0547 -0.1919
  497PAPC   C4B 6087   1.974  26.793   6.063  0.1636  0.0482 -0.4011
  498PAPC   NC3 6088  18.915   9.066   7.019  0.0273  0.0276 -0.0837
  498PAPC   PO4 6089  18.882   9.333   7.269 -0.0513  0.1299 -0.2195
  498PAPC   GL1 6090  19.228   9.541   7.139 -0.0266  0.0268 -0.0325
  498PAPC   GL2 6091  19.210   9.626   6.862 -0.2442  0.0812 -0.2227
  498PAPC   C1A 6092  19.607   9.511   7.085  0.0580 -0.1806  0.0779
  498PAPC   D2A 6093  19.931   9.281   6.957  0.1679 -0.1255 -0.3558
  498PAPC   D3A 6094  20.087   9.281   6.535  0.0857 -0.1086  0.0602
  498PAPC   D4A 6095  20.248   9.421   6.139  0.2438 -0.3664  0.2671
  498PAPC   C5A 6096  20.019   9.640   5.727 -0.1713  0.0763  0.2036
  498PAPC   C1B 6097  19.454   9.701   6.594 -0.1415 -0.0118  0.2168
  498PAPC   C2B 6098  19.824   9.662   6.695 -0.2658  0.0325 -0.0612
  498PAPC   C3B 6099  20.293   9.681   6.636  0.2936  0.0371 -0.3495
  498PAPC   C4B 6100  20.625  10.070   6.577 -0.2731 -0.0666 -0.1066
  499PAPC   NC3 6101  26.127  22.437   7.508  0.2580  0.1266  0.1685
  499PAPC   PO4 6102  25.772  22.325   7.633 -0.4015  0.0701  0.0937
  499PAPC   GL1 6103  25.640  22.170   7.257  0.1318 -0.2427 -0.0863
  499PAPC   GL2 6104  25.922  22.063   7.307 -0.3446 -0.1020 -0.1330
  499PAPC   C1A 6105  25.817  22.442   7.005 -0.5557  0.3315 -0.0555
  499PAPC   D2A 6106  25.874  22.815   6.805  0.0435 -0.0452  0.0904
  499PAPC   D3A 6107  25.898  22.899   6.386 -0.1261  0.2334  0.0723
  499PAPC   D4A 6108  25.764  22.681   6.038  0.2448 -0.1099 -0.0045
  499PAPC   C5A 6109  25.631  23.039   5.699  0.5015 -0.0866  0.0627
  499PAPC   C1B 6110  26.145  22.180   7.001 -0.0524  0.3692 -0.0941
  499PAPC   C2B 6111  25.960  22.213   6.658  0.0726  0.0088  0.1318
  499PAPC   C3B 6112  25.994  22.269   6.184 -0.1186  0.1427  0.3375
  499PAPC   C4B 6113  25.863  22.310   5.702  0.0561 -0.0559  0.1598
  500PAPC   NC3 6114   3.143  10.611   7.821 -0.0306  0.2281  0.4026
  500PAPC   PO4 6115   3.529  10.601   7.714  0.1729 -0.0160  0.6498
  500PAPC   GL1 6116   3.468  10.647   7.328  0.3294  0.4956  0.3171
  500PAPC   GL2 6117   3.339  10.469   7.167 -0.1641  0.0266  0.2621
  500PAPC   C1A 6118   3.616  10.830   7.045 -0.2836  0.0928 -0.1948
  500PAPC   D2A 6119   3.725  10.661   6.675  0.1142  0.1977 -0.3040
  500PAPC   D3A 6120   3.994  10.501   6.415  0.0806 -0.0167 -0.1133
  500PAPC   D4A 6121   4.006  10.756   6.001 -0.0371 -0.2273 -0.1413
  500PAPC   C5A 6122   3.821  10.799   5.545  0.3108 -0.1138  0.1615
  500PAPC   C1B 6123   3.273  10.636   6.806 -0.2960 -0.0877 -0.2622
  500PAPC   C2B 6124   3.140  10.717   6.434  0.1640 -0.1486  0.1158
  500PAPC   C3B 6125   3.115  10.697   5.969 -0.0958  0.2686  0.3059
  500PAPC   C4B 6126   3.098  10.512   5.505  0.0451  0.0103  0.0450
  501PAPC   NC3 6127  22.445   3.593   8.001  0.0428  0.2510 -0.0055
  501PAPC   PO4 6128  22.191   3.304   7.984 -0.3486  0.2261  0.1169
  501PAPC   GL1 6129  21.930   3.345   7.611 -0.2349 -0.0126  0.2054
  501PAPC   GL2 6130  21.967   3.566   7.637 -0.0353 -0.3904  0.6123
  501PAPC   C1A 6131  21.964   3.314   7.204 -0.3088  0.2547  0.0732
  501PAPC   D2A 6132  22.112   3.333   6.895 -0.1869 -0.0189  0.0096
  501PAPC   D3A 6133  21.952   3.302   6.483  0.2598 -0.1326 -0.2388
  501PAPC   D4A 6134  21.934   2.908   6.240 -0.0841  0.0839 -0.1069
  501PAPC   C5A 6135  22.178   2.531   6.305  0.1770  0.0733 -0.1766
  501PAPC   C1B 6136  22.067   3.728   7.296 -0.2276  0.0523  0.1486
  501PAPC   C2B 6137  22.401   3.787   7.028 -0.1328 -0.1616  0.1552
  501PAPC   C3B 6138  22.528   3.811   6.562  0.1126  0.1815 -0.2542
  501PAPC   C4B 6139  22.614   3.793   6.066  0.2458 -0.0612  0.3433
  502PAPC   NC3 6140  20.936  27.081   7.502  0.2248 -0.1331 -0.2264
  502PAPC   PO4 6141  20.716  27.415   7.600  0.2246 -0.3195  0.0588
  502PAPC   GL1 6142  20.467  27.572   7.329 -0.1758  0.1181  0.0452
  502PAPC   GL2 6143  20.348  27.352   7.193 -0.0332  0.2912 -0.4874
  502PAPC   C1A 6144  20.575  27.786   7.051  0.1027  0.1860 -0.0985
  502PAPC   D2A 6145  20.619  27.825   6.684 -0.0138  0.0470  0.0597
  502PAPC   D3A 6146  20.632  27.825   6.263  0.1426 -0.1082  0.0539
  502PAPC   D4A 6147  20.747  27.723   5.915 -0.1787 -0.0200  0.0576
  502PAPC   C5A 6148  20.415  27.599   5.648 -0.1925  0.2186  0.0503
  502PAPC   C1B 6149  20.321  27.494   6.871  0.1224 -0.0366 -0.0448
  502PAPC   C2B 6150  20.326  27.461   6.473 -0.0320 -0.2728  0.0408
  502PAPC   C3B 6151  20.106  27.539   6.074  0.1091 -0.3096 -0.0836
  502PAPC   C4B 6152  20.231  28.004   5.775 -0.0397 -0.1069 -0.0146
  503PAPC   NC3 6153  15.020   8.269   7.630 -0.1078 -0.2617 -0.0211
  503PAPC   PO4 6154  15.400   8.353   7.515 -0.0143 -0.1528 -0.0793
  503PAPC   GL1 6155  15.110   8.444   7.213 -0.0163  0.3408  0.3815
  503PAPC   GL2 6156  15.195   8.768   7.287  0.2350 -0.3128 -0.1706
  503PAPC   C1A 6157  14.814   8.673   7.061  0.1792  0.5406 -0.0537
  503PAPC   D2A 6158  14.752   9.060   6.960  0.5214  0.0100  0.1728
  503PAPC   D3A 6159  14.504   9.446   7.037  0.3341 -0.1327 -0.0266
  503PAPC   D4A 6160  14.704   9.588   6.645 -0.1539 -0.1562 -0.1081
  503PAPC   C5A 6161  14.546   9.693   6.203 -0.3376  0.1006 -0.0314
  503PAPC   C1B 6162  15.206   8.934   6.949  0.2360 -0.4381 -0.2216
  503PAPC   C2B 6163  15.022   8.791   6.620  0.0865  0.1347 -0.0568
  503PAPC   C3B 6164  14.862   8.422   6.349  0.0205  0.1084 -0.2021
  503PAPC   C4B 6165  14.640   8.357   5.956  0.4102  0.2162 -0.1436
  504PAPC   NC3 6166  15.841   6.534   6.871  0.2695 -0.1856 -0.1661
  504PAPC   PO4 6167  15.580   6.832   7.060 -0.0994  0.0779  0.0158
  504PAPC   GL1 6168  15.366   7.077   6.829 -0.1509  0.0361  0.0030
  504PAPC   GL2 6169  15.539   7.235   6.730 -0.2747 -0.3595  0.1862
  504PAPC   C1A 6170  15.041   7.127   6.670 -0.3427  0.5160  0.2663
  504PAPC   D2A 6171  14.774   6.854   6.631 -0.0229 -0.1404 -0.0351
  504PAPC   D3A 6172  14.831   6.685   6.157 -0.0815 -0.2560  0.0938
  504PAPC   D4A 6173  15.093   6.752   5.758 -0.0059  0.0548 -0.0054
  504PAPC   C5A 6174  14.698   6.982   5.648 -0.2353 -0.0575  0.0785
  504PAPC   C1B 6175  15.576   7.336   6.366  0.0784 -0.1349 -0.2194
  504PAPC   C2B 6176  15.669   7.417   5.981  0.3061 -0.1385 -0.2894
  504PAPC   C3B 6177  15.738   7.426   5.545 -0.3461 -0.1191  0.1107
  504PAPC   C4B 6178  15.624   7.288   5.128 -0.2661 -0.5598  0.0486
  505PAPC   NC3 6179  16.518  13.891   7.552 -0.3347  0.1143 -0.3153
  505PAPC   PO4 6180  16.427  13.667   7.248 -0.0487  0.2149  0.0759
  505PAPC   GL1 6181  16.192  13.655   6.877 -0.0522  0.2484  0.0200
  505PAPC   GL2 6182  16.473  13.542   6.730 -0.2137  0.3253 -0.2550
  505PAPC   C1A 6183  16.071  13.826   6.572 -0.2894  0.0434 -0.1213
  505PAPC   D2A 6184  15.656  13.960   6.457 -0.3290  0.3009 -0.1363
  505PAPC   D3A 6185  15.738  14.044   6.005  0.4408 -0.3315  0.0457
  505PAPC   D4A 6186  15.891  13.950   5.625 -0.2077  0.0842 -0.1359
  505PAPC   C5A 6187  16.374  13.950   5.573 -0.1751  0.2017 -0.0971
  505PAPC   C1B 6188  16.614  13.769   6.394  0.2226  0.2057 -0.2616
  505PAPC   C2B 6189  16.727  13.738   6.002 -0.0772  0.0074  0.0942
  505PAPC   C3B 6190  16.688  13.473   5.558 -0.2328  0.1051 -0.0277
  505PAPC   C4B 6191  16.736  13.210   5.126 -0.0897 -0.3779  0.3625
  506PAPC   NC3 6192  25.706   3.796   8.672  0.0085 -0.1977  0.0646
  506PAPC   PO4 6193  25.787   4.158   8.466  0.2545  0.5186  0.0523
  506PAPC   GL1 6194  25.817   4.160   8.085 -0.1707 -0.0193 -0.1682
  506PAPC   GL2 6195  25.805   4.354   7.976  0.2987 -0.0211 -0.2395
  506PAPC   C1A 6196  26.004   3.931   7.887 -0.3784  0.1390  0.1057
  506PAPC   D2A 6197  25.996   3.573   7.793  0.1114 -0.0642  0.1347
  506PAPC   D3A 6198  25.699   3.239   7.555 -0.3495  0.2120  0.0369
  506PAPC   D4A 6199  25.765   3.256   7.118 -0.1810  0.0042 -0.0593
  506PAPC   C5A 6200  26.126   3.152   6.717 -0.0228 -0.1777 -0.1686
  506PAPC   C1B 6201  25.514   4.436   7.731 -0.0575 -0.2115 -0.0369
  506PAPC   C2B 6202  25.382   4.257   7.389 -0.1366 -0.0228  0.2537
  506PAPC   C3B 6203  25.417   4.119   6.900  0.2268  0.3709  0.1484
  506PAPC   C4B 6204  25.114   3.813   6.598  0.0051 -0.1953  0.0101
  507PAPC   NC3 6205  22.219   6.512   7.835 -0.0925  0.0052  0.2015
  507PAPC   PO4 6206  22.115   6.095   7.907  0.0545 -0.0735  0.1424
  507PAPC   GL1 6207  22.073   6.006   7.492 -0.1842  0.1468  0.2226
  507PAPC   GL2 6208  22.205   6.300   7.411  0.1037  0.0995 -0.1505
  507PAPC   C1A 6209  21.763   6.065   7.393  0.2329  0.0277  0.5443
  507PAPC   D2A 6210  21.450   6.062   7.087  0.0080  0.1476  0.0433
  507PAPC   D3A 6211  21.362   6.339   6.776  0.1638 -0.1379 -0.0899
  507PAPC   D4A 6212  21.405   6.331   6.396 -0.0268  0.3686 -0.0648
  507PAPC   C5A 6213  21.421   6.724   6.309 -0.1831 -0.0731  0.0086
  507PAPC   C1B 6214  21.999   6.196   7.066  0.0410  0.0058  0.1417
  507PAPC   C2B 6215  21.819   6.139   6.721  0.2582 -0.1171 -0.2367
  507PAPC   C3B 6216  21.755   6.016   6.211 -0.3671 -0.1723  0.1438
  507PAPC   C4B 6217  21.714   5.822   5.776 -0.0323  0.1749  0.0783
  508PAPC   NC3 6218  21.932   9.445   7.455  0.2822 -0.1185  0.0172
  508PAPC   PO4 6219  22.297   9.571   7.587  0.0465 -0.0714 -0.2346
  508PAPC   GL1 6220  22.603   9.428   7.345 -0.0956 -0.1535 -0.0541
  508PAPC   GL2 6221  22.663   9.685   7.182  0.0959 -0.4815 -0.0069
  508PAPC   C1A 6222  22.495   9.186   7.044 -0.2949 -0.1276 -0.2404
  508PAPC   D2A 6223  22.274   8.861   7.000  0.0361  0.2563  0.1878
  508PAPC   D3A 6224  22.198   8.383   6.944 -0.1398 -0.1470  0.1965
  508PAPC   D4A 6225  22.608   8.388   6.913 -0.1200 -0.2586 -0.0728
  508PAPC   C5A 6226  22.619   8.530   6.500 -0.0165 -0.0185 -0.1176
  508PAPC   C1B 6227  22.650   9.709   6.845  0.2284  0.0029  0.2432
  508PAPC   C2B 6228  22.557   9.797   6.451  0.3117  0.2776 -0.0421
  508PAPC   C3B 6229  22.629  10.028   6.132 -0.1245  0.0482 -0.0474
  508PAPC   C4B 6230  22.955  10.031   5.811  0.1142  0.0511  0.0938
  509PAPC   NC3 6231  20.016   7.327   7.073  0.2889 -0.1555  0.2491
  509PAPC   PO4 6232  20.033   7.607   6.827  0.0718 -0.1588  0.3594
  509PAPC   GL1 6233  20.117   7.893   6.477  0.3441 -0.4680  0.0289
  509PAPC   GL2 6234  20.124   7.567   6.388 -0.3791 -0.0559 -0.1276
  509PAPC   C1A 6235  20.417   8.089   6.362 -0.1234  0.1872  0.3672
  509PAPC   D2A 6236  20.658   8.002   6.036 -0.2898 -0.3040 -0.2416
  509PAPC   D3A 6237  21.092   8.126   6.040 -0.0525 -0.1238 -0.0721
  509PAPC   D4A 6238  21.211   8.462   5.784  0.2422  0.1974  0.0268
  509PAPC   C5A 6239  21.501   8.719   5.533  0.0305  0.0090  0.1403
  509PAPC   C1B 6240  20.027   7.501   6.064 -0.2366  0.0749  0.4232
  509PAPC   C2B 6241  20.204   7.570   5.703 -0.0506 -0.0326  0.0081
  509PAPC   C3B 6242  20.502   7.943   5.486 -0.0359  0.0888 -0.0893
  509PAPC   C4B 6243  20.601   8.379   5.219  0.1588  0.1577 -0.0778
  510PAPC   NC3 6244  11.976  14.358   8.066  0.0939  0.1918  0.0575
  510PAPC   PO4 6245  11.725  14.436   7.765  0.3835 -0.2630  0.1048
  510PAPC   GL1 6246  11.970  14.602   7.484 -0.0741  0.0915 -0.0207
  510PAPC   GL2 6247  11.852  14.788   7.336  0.1857 -0.0379  0.0341
  510PAPC   C1A 6248  12.151  14.457   7.230  0.1475 -0.0914  0.1023
  510PAPC   D2A 6249  12.412  14.113   7.069 -0.1856  0.0845 -0.1059
  510PAPC   D3A 6250  12.292  13.707   6.820  0.3108 -0.3590  0.0587
  510PAPC   D4A 6251  12.147  13.716   6.350 -0.0530  0.1023  0.1171
  510PAPC   C5A 6252  12.289  13.805   5.890 -0.0372 -0.1121 -0.1141
  510PAPC   C1B 6253  11.877  14.694   6.953  0.0182  0.1483 -0.4354
  510PAPC   C2B 6254  12.064  14.731   6.633  0.2227 -0.0514 -0.0024
  510PAPC   C3B 6255  12.118  14.881   6.186 -0.0459 -0.0937  0.0189
  510PAPC   C4B 6256  12.173  15.038   5.718 -0.2297 -0.0504 -0.1535
  511PAPC   NC3 6257  16.814   7.515   7.127  0.0648 -0.1260 -0.3009
  511PAPC   PO4 6258  17.101   7.525   7.365  0.2410 -0.0891  0.3140
  511PAPC   GL1 6259  17.268   7.616   7.019  0.0702 -0.1119 -0.2168
  511PAPC   GL2 6260  17.311   7.401   6.861 -0.0663 -0.1998 -0.1197
  511PAPC   C1A 6261  17.035   7.660   6.725  0.1900  0.3081  0.0561
  511PAPC   D2A 6262  16.746   7.924   6.733  0.2890  0.1805 -0.2877
  511PAPC   D3A 6263  16.710   8.252   6.434 -0.1501  0.1274 -0.1297
  511PAPC   D4A 6264  16.687   8.271   5.998 -0.0937  0.2029 -0.2570
  511PAPC   C5A 6265  16.479   8.625   5.764  0.1012 -0.1182 -0.2224
  511PAPC   C1B 6266  17.631   7.593   6.735 -0.2441  0.0718 -0.3887
  511PAPC   C2B 6267  17.824   7.843   6.453  0.1382 -0.0850  0.1477
  511PAPC   C3B 6268  17.841   7.995   5.986  0.1317  0.1002 -0.2294
  511PAPC   C4B 6269  17.889   8.039   5.526  0.0603  0.0653  0.0777
  512PAPC   NC3 6270  15.513  13.745   7.239 -0.0616 -0.2478 -0.1945
  512PAPC   PO4 6271  15.696  13.571   6.926  0.1009 -0.1957  0.0425
  512PAPC   GL1 6272  15.385  13.643   6.647 -0.2031  0.0278 -0.0464
  512PAPC   GL2 6273  15.304  13.895   6.817 -0.2742  0.2341  0.5255
  512PAPC   C1A 6274  15.273  13.765   6.368  0.2496 -0.1695 -0.2109
  512PAPC   D2A 6275  15.214  13.956   6.045  0.1808 -0.1597  0.0296
  512PAPC   D3A 6276  15.025  14.017   5.656  0.0734  0.0853  0.1239
  512PAPC   D4A 6277  15.015  14.284   5.337 -0.3827 -0.0128 -0.0955
  512PAPC   C5A 6278  14.592  14.118   5.168  0.2216  0.1673 -0.0155
  512PAPC   C1B 6279  15.257  14.138   6.581  0.0304 -0.0017 -0.0321
  512PAPC   C2B 6280  15.292  14.367   6.239  0.0780 -0.2740 -0.0478
  512PAPC   C3B 6281  15.287  14.510   5.784 -0.1221 -0.1163 -0.0062
  512PAPC   C4B 6282  15.417  14.677   5.410  0.2883  0.0935  0.2311
  513PAPC   NC3 6283   5.226  27.319   7.554  0.0385  0.3799  0.1508
  513PAPC   PO4 6284   5.606  27.406   7.478 -0.3999 -0.2093  0.2405
  513PAPC   GL1 6285   5.583  27.254   7.121  0.4567 -0.2758 -0.1474
  513PAPC   GL2 6286   5.411  27.551   7.094 -0.1135 -0.3514 -0.2508
  513PAPC   C1A 6287   5.557  27.234   6.759  0.1066  0.0216  0.4525
  513PAPC   D2A 6288   5.591  26.970   6.458  0.0827 -0.1603  0.0790
  513PAPC   D3A 6289   5.833  26.979   6.040  0.3649 -0.0906  0.0280
  513PAPC   D4A 6290   6.100  27.156   5.697 -0.3671  0.1010  0.2786
  513PAPC   C5A 6291   6.230  26.675   5.797  0.0860 -0.1271 -0.0244
  513PAPC   C1B 6292   5.210  27.504   6.891  0.2870  0.2700  0.0778
  513PAPC   C2B 6293   5.060  27.527   6.484 -0.1422  0.1242  0.1019
  513PAPC   C3B 6294   5.166  27.753   6.056 -0.2743 -0.0621 -0.0689
  513PAPC   C4B 6295   5.442  27.743   5.686  0.2556 -0.1282  0.1759
  514PAPC   NC3 6296  17.953  14.549   7.236  0.2330  0.0611 -0.0721
  514PAPC   PO4 6297  17.579  14.359   7.147 -0.0258 -0.0678  0.3661
  514PAPC   GL1 6298  17.253  14.663   6.923 -0.0118  0.2072 -0.1732
  514PAPC   GL2 6299  17.490  14.737   6.807 -0.1567 -0.2800 -0.0310
  514PAPC   C1A 6300  16.980  14.882   6.706 -0.0673  0.2283 -0.3571
  514PAPC   D2A 6301  16.598  14.820   6.640  0.0491 -0.0774 -0.0814
  514PAPC   D3A 6302  16.520  14.368   6.569 -0.0315 -0.0396  0.0937
  514PAPC   D4A 6303  16.689  14.217   6.165  0.1468  0.3732 -0.2539
  514PAPC   C5A 6304  16.718  14.429   5.763 -0.4081 -0.2443  0.1872
  514PAPC   C1B 6305  17.357  14.756   6.467  0.2369  0.4334  0.2168
  514PAPC   C2B 6306  17.260  14.821   6.044 -0.1777 -0.1761 -0.0709
  514PAPC   C3B 6307  16.882  14.866   5.751  0.1750  0.0717 -0.1388
  514PAPC   C4B 6308  16.757  14.784   5.283 -0.1302  0.4686  0.2009
  515PAPC   NC3 6309  14.578  27.471   8.129  0.3561  0.4932 -0.0774
  515PAPC   PO4 6310  14.316  27.345   7.845 -0.2839 -0.0332  0.3423
  515PAPC   GL1 6311  14.275  27.099   7.437  0.1418 -0.1700  0.1473
  515PAPC   GL2 6312  14.633  27.097   7.501  0.4216  0.1042  0.0965
  515PAPC   C1A 6313  14.169  27.071   7.087 -0.0499  0.0709 -0.1551
  515PAPC   D2A 6314  14.046  26.901   6.709 -0.0461 -0.2222  0.2831
  515PAPC   D3A 6315  13.643  27.110   6.748  0.0784  0.0364 -0.2299
  515PAPC   D4A 6316  13.426  27.071   6.319 -0.1549 -0.0078  0.0568
  515PAPC   C5A 6317  13.758  26.762   6.126 -0.0034  0.0296  0.1475
  515PAPC   C1B 6318  14.743  27.099   7.135  0.1872 -0.1142 -0.3626
  515PAPC   C2B 6319  14.908  27.213   6.795 -0.2420  0.0822 -0.1525
  515PAPC   C3B 6320  14.963  27.314   6.304 -0.0373  0.0115  0.0541
  515PAPC   C4B 6321  14.984  27.360   5.766  0.0841 -0.0225  0.0291
  516PAPC   NC3 6322  19.019   5.316   7.046 -0.0326 -0.0444 -0.3214
  516PAPC   PO4 6323  18.639   5.313   7.010  0.0085 -0.4551 -0.0650
  516PAPC   GL1 6324  18.420   5.052   6.722  0.3739 -0.0110 -0.1130
  516PAPC   GL2 6325  18.582   5.096   6.501 -0.1843  0.4096 -0.0465
  516PAPC   C1A 6326  18.178   4.767   6.603 -0.3803  0.2346 -0.0346
  516PAPC   D2A 6327  18.166   4.380   6.766  0.2790 -0.0395 -0.0745
  516PAPC   D3A 6328  17.941   3.989   6.716 -0.0153  0.2328 -0.0266
  516PAPC   D4A 6329  17.969   3.742   6.352  0.2060 -0.0711  0.0146
  516PAPC   C5A 6330  18.323   3.720   6.015 -0.3540  0.1068  0.3634
  516PAPC   C1B 6331  18.488   5.262   6.148 -0.4198 -0.0563 -0.0030
  516PAPC   C2B 6332  18.559   5.428   5.793  0.0505  0.1143  0.1982
  516PAPC   C3B 6333  18.714   5.486   5.296  0.3155  0.1690  0.0074
  516PAPC   C4B 6334  18.862   5.301   4.923 -0.0515  0.1490 -0.1520
  517PAPC   NC3 6335   0.839   3.376   7.597  0.0339 -0.1399 -0.0185
  517PAPC   PO4 6336   0.694   2.978   7.605  0.0755 -0.0284 -0.0454
  517PAPC   GL1 6337   0.588   2.726   7.194 -0.0374  0.0289 -0.1138
  517PAPC   GL2 6338   0.275   2.859   7.357 -0.0964 -0.0001 -0.0962
  517PAPC   C1A 6339   0.569   2.713   6.846 -0.0275  0.2271 -0.0675
  517PAPC   D2A 6340   0.629   2.919   6.496  0.0388  0.3270  0.3604
  517PAPC   D3A 6341   0.361   2.900   6.113 -0.1750  0.1411  0.2686
  517PAPC   D4A 6342   0.090   2.996   5.714  0.1900  0.5076  0.1767
  517PAPC   C5A 6343  -0.166   3.302   5.481 -0.1361 -0.0294 -0.0777
  517PAPC   C1B 6344   0.158   2.965   6.984  0.0265 -0.0145 -0.3751
  517PAPC   C2B 6345   0.136   2.768   6.602  0.0152 -0.2237  0.0488
  517PAPC   C3B 6346  -0.110   2.657   6.172  0.0425 -0.0205  0.0210
  517PAPC   C4B 6347  -0.553   2.409   5.953 -0.1302  0.0097  0.3236
  518PAPC   NC3 6348   3.489   0.492   8.045 -0.0700 -0.0532  0.0935
  518PAPC   PO4 6349   3.263   0.400   7.730  0.0648 -0.0335 -0.2045
  518PAPC   GL1 6350   3.270   0.023   7.513  0.2576  0.0937 -0.1399
  518PAPC   GL2 6351   3.428   0.139   7.305  0.3290  0.3512 -0.0925
  518PAPC   C1A 6352   2.927  -0.131   7.369  0.3371  0.1240  0.0513
  518PAPC   D2A 6353   2.548  -0.310   7.242 -0.0626  0.0004  0.1450
  518PAPC   D3A 6354   2.419  -0.371   6.813 -0.0583 -0.1157 -0.0427
  518PAPC   D4A 6355   2.485  -0.493   6.408  0.2820  0.0545  0.2253
  518PAPC   C5A 6356   2.586  -0.373   6.021  0.2731 -0.4455  0.3212
  518PAPC   C1B 6357   3.295   0.062   6.958 -0.0952 -0.3253  0.3777
  518PAPC   C2B 6358   3.302   0.221   6.578  0.1775 -0.0853  0.0033
  518PAPC   C3B 6359   3.139   0.591   6.355  0.0409 -0.0591  0.0191
  518PAPC   C4B 6360   2.801   0.886   6.161  0.0967  0.1747 -0.0849
  519PAPC   NC3 6361  18.986  19.985   7.885 -0.3715 -0.0798  0.1800
  519PAPC   PO4 6362  19.303  19.899   7.622  0.2291 -0.1176  0.0601
  519PAPC   GL1 6363  19.350  19.844   7.230  0.1255  0.1137  0.1742
  519PAPC   GL2 6364  19.404  20.103   7.140  0.0135  0.1354 -0.3062
  519PAPC   C1A 6365  19.658  19.701   7.069  0.2632 -0.1126 -0.0923
  519PAPC   D2A 6366  19.764  19.475   6.716  0.0175 -0.0206  0.0802
  519PAPC   D3A 6367  20.062  19.137   6.857  0.3275  0.2123  0.2811
  519PAPC   D4A 6368  20.301  18.866   6.691  0.1417  0.0519 -0.0759
  519PAPC   C5A 6369  20.720  18.719   6.442  0.0749 -0.2463  0.1544
  519PAPC   C1B 6370  19.327  20.191   6.784  0.1363 -0.1163 -0.1549
  519PAPC   C2B 6371  19.309  20.348   6.413 -0.1103  0.1272  0.1499
  519PAPC   C3B 6372  18.939  20.256   6.150  0.3517  0.0669  0.1024
  519PAPC   C4B 6373  18.519  20.407   5.843 -0.1240  0.0009 -0.0474
  520PAPC   NC3 6374  23.157  22.318   7.592 -0.0285 -0.0773  0.1782
  520PAPC   PO4 6375  22.906  22.539   7.338 -0.1997 -0.1547 -0.0790
  520PAPC   GL1 6376  22.749  22.317   6.913 -0.3924 -0.0506  0.0885
  520PAPC   GL2 6377  22.988  22.347   6.923  0.1071  0.2121 -0.1674
  520PAPC   C1A 6378  22.603  22.369   6.588 -0.1142 -0.1923 -0.3630
  520PAPC   D2A 6379  22.250  22.517   6.452  0.1317  0.0303  0.4917
  520PAPC   D3A 6380  22.538  22.532   6.057 -0.0951 -0.0029 -0.0918
  520PAPC   D4A 6381  22.623  22.650   5.609 -0.1797 -0.1675 -0.1752
  520PAPC   C5A 6382  22.837  22.325   5.375  0.2793  0.2237 -0.1505
  520PAPC   C1B 6383  23.224  22.423   6.634  0.1377 -0.0662 -0.4802
  520PAPC   C2B 6384  23.532  22.424   6.356 -0.0217  0.1095 -0.1810
  520PAPC   C3B 6385  23.619  22.737   5.974  0.1750  0.0558  0.0638
  520PAPC   C4B 6386  23.764  22.703   5.524  0.0307 -0.4164 -0.0943
  521PAPC   NC3 6387  15.597   8.572   7.070 -0.3289 -0.0334  0.0480
  521PAPC   PO4 6388  15.859   8.302   7.228 -0.1137 -0.4398 -0.0910
  521PAPC   GL1 6389  15.917   8.032   6.930  0.4298 -0.0722 -0.2992
  521PAPC   GL2 6390  15.598   7.978   6.882  0.0429 -0.1599 -0.0426
  521PAPC   C1A 6391  15.971   7.915   6.624 -0.0200 -0.1532 -0.1194
  521PAPC   D2A 6392  15.786   7.745   6.321  0.1984  0.0452  0.0718
  521PAPC   D3A 6393  15.770   7.917   5.961  0.5435 -0.0169  0.4625
  521PAPC   D4A 6394  15.683   8.100   5.561  0.0874 -0.1115  0.3333
  521PAPC   C5A 6395  15.867   8.402   5.160  0.0447  0.0954  0.1178
  521PAPC   C1B 6396  15.345   8.241   6.769 -0.4364  0.1263 -0.1169
  521PAPC   C2B 6397  15.369   8.529   6.457  0.1952  0.1288  0.1396
  521PAPC   C3B 6398  15.228   8.833   6.064  0.1654  0.2745  0.1594
  521PAPC   C4B 6399  14.986   8.987   5.731  0.0710 -0.0893  0.2150
  522PAPC   NC3 6400  14.390  19.383   7.512  0.2790 -0.0616 -0.3331
  522PAPC   PO4 6401  14.358  19.001   7.567 -0.1977  0.1656  0.2294
  522PAPC   GL1 6402  14.474  18.841   7.327 -0.0145  0.1198 -0.0280
  522PAPC   GL2 6403  14.430  18.501   7.296  0.0354 -0.1009  0.1184
  522PAPC   C1A 6404  14.535  19.112   7.091 -0.1731  0.0084 -0.3510
  522PAPC   D2A 6405  14.432  19.403   6.871 -0.0612  0.2851 -0.0558
  522PAPC   D3A 6406  14.551  19.309   6.414  0.4389 -0.1145 -0.1573
  522PAPC   D4A 6407  14.659  19.333   6.002  0.0026 -0.1409  0.1462
  522PAPC   C5A 6408  14.288  19.528   5.737  0.2806  0.0477 -0.0206
  522PAPC   C1B 6409  14.094  18.338   7.229 -0.1711  0.1497 -0.1728
  522PAPC   C2B 6410  13.909  18.375   6.899 -0.0470  0.0058  0.1192
  522PAPC   C3B 6411  13.789  18.250   6.437 -0.4182 -0.1718  0.0812
  522PAPC   C4B 6412  13.715  18.146   6.000  0.1257 -0.2886  0.1408
  523PAPC   NC3 6413   0.078  17.977   7.677  0.0839 -0.2876  0.0166
  523PAPC   PO4 6414   0.035  17.598   7.729 -0.2695 -0.1107 -0.0282
  523PAPC   GL1 6415   0.306  17.569   7.307  0.2327  0.4491  0.0909
  523PAPC   GL2 6416   0.052  17.648   7.305 -0.0708 -0.1788  0.2860
  523PAPC   C1A 6417   0.559  17.752   7.060  0.0225 -0.7649  0.6140
  523PAPC   D2A 6418   0.677  17.683   6.709  0.2239 -0.0189 -0.2687
  523PAPC   D3A 6419   0.840  17.229   6.562 -0.0044 -0.1603 -0.1376
  523PAPC   D4A 6420   1.073  17.169   6.190 -0.0519  0.1598  0.1054
  523PAPC   C5A 6421   1.111  17.390   5.708  0.1363 -0.1476  0.0295
  523PAPC   C1B 6422  -0.026  17.720   6.956  0.0940 -0.1938 -0.2266
  523PAPC   C2B 6423  -0.127  17.873   6.565  0.0612  0.0421 -0.0987
  523PAPC   C3B 6424  -0.212  18.235   6.245 -0.0659  0.2730  0.0063
  523PAPC   C4B 6425   0.046  18.500   5.991  0.1017 -0.1940 -0.1805
  524PAPC   NC3 6426  22.419  12.170   7.598 -0.0250 -0.0221 -0.0068
  524PAPC   PO4 6427  22.226  12.436   7.371 -0.4280  0.0837  0.1100
  524PAPC   GL1 6428  22.279  12.201   6.960  0.1688 -0.0796  0.0200
  524PAPC   GL2 6429  22.366  12.464   6.840  0.0490 -0.2853 -0.0997
  524PAPC   C1A 6430  22.313  11.907   6.779 -0.1880 -0.3888  0.0587
  524PAPC   D2A 6431  22.452  11.735   6.424  0.0293  0.1298 -0.0903
  524PAPC   D3A 6432  22.315  11.785   5.957 -0.0372  0.3007 -0.0052
  524PAPC   D4A 6433  22.124  11.727   5.548 -0.1204  0.0912 -0.0929
  524PAPC   C5A 6434  22.094  11.242   5.431 -0.2320 -0.3121  0.1474
  524PAPC   C1B 6435  22.430  12.594   6.492 -0.1791 -0.0407 -0.2844
  524PAPC   C2B 6436  22.460  12.911   6.229 -0.0831  0.0556 -0.0963
  524PAPC   C3B 6437  22.579  13.119   5.802 -0.0745 -0.0616 -0.1727
  524PAPC   C4B 6438  22.644  13.302   5.303  0.0492  0.1730 -0.0714
  525PAPC   NC3 6439  16.863  12.928   7.839  0.2323  0.4388 -0.3833
  525PAPC   PO4 6440  16.799  12.608   7.592  0.3869  0.2893  0.0918
  525PAPC   GL1 6441  16.928  12.514   7.173 -0.4583 -0.4009  0.0402
  525PAPC   GL2 6442  16.764  12.738   7.126 -0.2947 -0.2280  0.1688
  525PAPC   C1A 6443  17.116  12.528   6.839  0.4357 -0.1503 -0.3538
  525PAPC   D2A 6444  17.471  12.556   6.678  0.0001  0.2551 -0.1805
  525PAPC   D3A 6445  17.504  12.499   6.280  0.0746 -0.1068 -0.4087
  525PAPC   D4A 6446  17.227  12.687   6.009  0.1077  0.1584 -0.2825
  525PAPC   C5A 6447  17.074  12.339   5.717 -0.0177  0.5451 -0.0557
  525PAPC   C1B 6448  16.641  12.788   6.786 -0.0375  0.0803 -0.0668
  525PAPC   C2B 6449  16.628  13.095   6.580  0.2474  0.0037  0.1342
  525PAPC   C3B 6450  16.507  13.359   6.172 -0.1398 -0.1124  0.1026
  525PAPC   C4B 6451  16.265  13.828   6.117 -0.3657  0.0217  0.1966
  526PAPC   NC3 6452   5.838   2.938   7.775  0.3603 -0.2152  0.3269
  526PAPC   PO4 6453   5.946   3.024   7.407 -0.0724  0.0409  0.0007
  526PAPC   GL1 6454   6.272   3.123   7.106 -0.0980 -0.0107  0.2109
  526PAPC   GL2 6455   6.095   3.094   6.850  0.4044  0.3431 -0.0305
  526PAPC   C1A 6456   6.611   3.107   6.987  0.1358 -0.0816  0.1447
  526PAPC   D2A 6457   6.983   3.119   6.949 -0.1797 -0.0099  0.0790
  526PAPC   D3A 6458   7.388   3.088   6.711 -0.1571  0.0370  0.2130
  526PAPC   D4A 6459   7.630   3.317   6.431  0.3091  0.0502  0.0618
  526PAPC   C5A 6460   7.634   3.386   5.962  0.1242 -0.2522 -0.1855
  526PAPC   C1B 6461   6.116   2.768   6.681  0.2831 -0.0873  0.2737
  526PAPC   C2B 6462   6.310   2.401   6.529 -0.2911  0.0059 -0.0994
  526PAPC   C3B 6463   6.117   2.160   6.130  0.1071  0.0130 -0.1866
  526PAPC   C4B 6464   5.902   1.801   5.891 -0.1256  0.3174 -0.2991
  527PAPC   NC3 6465   0.201  12.587   8.024  0.1492  0.1013  0.0192
  527PAPC   PO4 6466  -0.102  12.897   8.075  0.1349  0.1763  0.0945
  527PAPC   GL1 6467  -0.184  13.090   7.603 -0.2871  0.1495  0.1055
  527PAPC   GL2 6468  -0.423  12.916   7.650 -0.0105 -0.0344 -0.2487
  527PAPC   C1A 6469  -0.160  13.166   7.256 -0.2516  0.1969  0.1081
  527PAPC   D2A 6470  -0.430  13.268   6.961 -0.1912  0.0867  0.2993
  527PAPC   D3A 6471  -0.512  13.550   7.238 -0.0059 -0.1592  0.1188
  527PAPC   D4A 6472  -0.851  13.500   6.950  0.0330 -0.1230 -0.1674
  527PAPC   C5A 6473  -0.790  13.460   6.519 -0.0571  0.1030 -0.2118
  527PAPC   C1B 6474  -0.396  12.674   7.400 -0.2782 -0.0663  0.1038
  527PAPC   C2B 6475  -0.453  12.581   7.010  0.1636 -0.0396 -0.1354
  527PAPC   C3B 6476  -0.624  12.507   6.538  0.0968 -0.0831 -0.3117
  527PAPC   C4B 6477  -0.782  12.587   6.110  0.1889  0.0097  0.1907
  528PAPC   NC3 6478  23.067   2.808   8.028  0.2128  0.0146 -0.4177
  528PAPC   PO4 6479  23.246   3.016   7.714 -0.0460  0.1266 -0.0720
  528PAPC   GL1 6480  23.264   2.810   7.349 -0.1327 -0.2941 -0.2063
  528PAPC   GL2 6481  22.884   2.700   7.372  0.0357  0.1159  0.2554
  528PAPC   C1A 6482  23.313   2.924   7.017 -0.4445  0.3585  0.0126
  528PAPC   D2A 6483  23.405   2.864   6.675 -0.3692 -0.0187  0.4069
  528PAPC   D3A 6484  23.414   2.756   6.250 -0.0070  0.1298  0.2058
  528PAPC   D4A 6485  23.257   2.489   5.887 -0.0416 -0.1722  0.0248
  528PAPC   C5A 6486  23.482   2.051   5.851  0.1391 -0.1024 -0.2304
  528PAPC   C1B 6487  22.711   2.628   7.019  0.4243 -0.1987 -0.1709
  528PAPC   C2B 6488  22.843   2.893   6.691 -0.0219  0.2696  0.1595
  528PAPC   C3B 6489  23.009   3.099   6.326 -0.2386 -0.3035 -0.4309
  528PAPC   C4B 6490  22.933   3.303   5.903  0.0620  0.4393  0.1336
  529PAPC   NC3 6491  11.127  11.882   7.661 -0.0112  0.1393  0.0071
  529PAPC   PO4 6492  11.286  11.660   7.369 -0.0032 -0.1246  0.0788
  529PAPC   GL1 6493  11.421  11.721   6.923  0.1055  0.0706  0.1835
  529PAPC   GL2 6494  11.240  11.887   6.977  0.1897  0.0586  0.1447
  529PAPC   C1A 6495  11.454  11.688   6.573 -0.0479  0.1012  0.4758
  529PAPC   D2A 6496  11.766  11.704   6.310  0.1834 -0.0033 -0.0918
  529PAPC   D3A 6497  11.852  12.042   6.135 -0.2417  0.1276  0.0629
  529PAPC   D4A 6498  12.031  12.236   6.489 -0.0030  0.0130 -0.2301
  529PAPC   C5A 6499  12.018  12.660   6.318 -0.2282 -0.5348 -0.1563
  529PAPC   C1B 6500  11.088  11.951   6.663 -0.2016  0.0414 -0.2795
  529PAPC   C2B 6501  11.193  12.040   6.243  0.2243 -0.2598  0.0235
  529PAPC   C3B 6502  11.403  12.024   5.826 -0.1045  0.2127 -0.1617
  529PAPC   C4B 6503  11.706  11.662   5.737 -0.2163 -0.3253 -0.1007
  530PAPC   NC3 6504  11.992  24.587   7.654 -0.1291  0.1203  0.0808
  530PAPC   PO4 6505  12.197  24.268   7.519 -0.2088  0.2802  0.1759
  530PAPC   GL1 6506  12.067  24.130   7.143 -0.5098  0.4288  0.2683
  530PAPC   GL2 6507  11.916  24.399   7.113  0.0354  0.2665  0.0867
  530PAPC   C1A 6508  12.366  24.231   6.882 -0.1521  0.1594 -0.4505
  530PAPC   D2A 6509  12.711  24.073   6.643  0.3164 -0.0717  0.0933
  530PAPC   D3A 6510  12.934  23.833   6.404  0.2410 -0.1069 -0.0762
  530PAPC   D4A 6511  13.175  23.807   6.104 -0.2297  0.1733 -0.1866
  530PAPC   C5A 6512  13.153  24.025   5.680 -0.0024  0.1604  0.0149
  530PAPC   C1B 6513  12.014  24.414   6.748 -0.1804 -0.0444  0.1619
  530PAPC   C2B 6514  12.221  24.395   6.410  0.0080  0.1189  0.4021
  530PAPC   C3B 6515  12.186  24.489   5.976 -0.0032 -0.0640 -0.0966
  530PAPC   C4B 6516  12.263  24.494   5.527 -0.1036  0.1319  0.0791
  531PAPC   NC3 6517  16.152   7.867   7.287 -0.0422 -0.1268  0.5637
  531PAPC   PO4 6518  16.447   8.063   7.129  0.2466 -0.4620  0.0631
  531PAPC   GL1 6519  16.264   8.184   6.718  0.2530 -0.2040  0.4568
  531PAPC   GL2 6520  16.177   8.395   6.876 -0.1492 -0.0633  0.2108
  531PAPC   C1A 6521  16.225   8.321   6.372  0.4117 -0.0492 -0.4073
  531PAPC   D2A 6522  16.080   8.451   6.055 -0.0712  0.1244  0.1898
  531PAPC   D3A 6523  15.964   8.527   5.621 -0.1511  0.1598  0.0013
  531PAPC   D4A 6524  16.224   8.729   5.349  0.0783 -0.2369 -0.3741
  531PAPC   C5A 6525  16.467   9.160   5.457 -0.0294 -0.0783 -0.0658
  531PAPC   C1B 6526  15.888   8.419   6.658  0.1450  0.1442 -0.2904
  531PAPC   C2B 6527  15.750   8.244   6.306  0.3600  0.0063  0.2910
  531PAPC   C3B 6528  15.544   8.478   5.925 -0.0718  0.2543  0.4875
  531PAPC   C4B 6529  15.472   8.687   5.517  0.0221 -0.2430 -0.0943
  532PAPC   NC3 6530   5.702  22.660   8.093  0.4012 -0.1279  0.1246
  532PAPC   PO4 6531   5.397  22.432   8.017 -0.1383 -0.1086  0.1625
  532PAPC   GL1 6532   5.516  22.532   7.571 -0.1996 -0.1029 -0.2052
  532PAPC   GL2 6533   5.743  22.605   7.618  0.1469  0.0176 -0.0366
  532PAPC   C1A 6534   5.440  22.647   7.241  0.2535  0.1888  0.1563
  532PAPC   D2A 6535   5.305  22.850   6.917 -0.1773  0.0460  0.1252
  532PAPC   D3A 6536   5.021  22.829   6.462 -0.1956  0.0604 -0.1335
  532PAPC   D4A 6537   4.941  23.126   6.103  0.0873  0.2887 -0.1525
  532PAPC   C5A 6538   4.457  23.197   6.240 -0.1181  0.0633 -0.1453
  532PAPC   C1B 6539   5.896  22.810   7.355  0.0340  0.2075 -0.0577
  532PAPC   C2B 6540   5.820  22.798   6.926  0.0404  0.0889  0.2502
  532PAPC   C3B 6541   5.694  22.827   6.441 -0.0044  0.2327 -0.1571
  532PAPC   C4B 6542   6.082  22.934   6.060 -0.0038 -0.1806  0.0774
  533PAPC   NC3 6543  25.433  17.530   7.310  0.1215 -0.0179  0.3219
  533PAPC   PO4 6544  25.462  17.943   7.399 -0.1808  0.1084  0.1515
  533PAPC   GL1 6545  25.687  18.259   7.172 -0.0100 -0.1364  0.4045
  533PAPC   GL2 6546  25.874  18.061   7.099  0.1258 -0.3109 -0.7521
  533PAPC   C1A 6547  25.633  18.463   6.864  0.2470 -0.0652  0.1868
  533PAPC   D2A 6548  25.511  18.449   6.505 -0.0221 -0.0813  0.2274
  533PAPC   D3A 6549  25.524  18.014   6.359 -0.1624 -0.1278  0.0893
  533PAPC   D4A 6550  25.098  18.007   6.546  0.0644 -0.1062 -0.1789
  533PAPC   C5A 6551  24.922  17.741   6.885 -0.0704 -0.0290  0.2367
  533PAPC   C1B 6552  25.884  18.125   6.695 -0.3541  0.2866 -0.3018
  533PAPC   C2B 6553  26.058  18.072   6.382  0.0069  0.0531 -0.2099
  533PAPC   C3B 6554  26.182  17.993   5.955  0.0290 -0.1631  0.0958
  533PAPC   C4B 6555  26.553  18.034   5.606 -0.0106 -0.0190  0.3600
  534PAPC   NC3 6556  14.647   4.377   7.549  0.0983 -0.0066 -0.2556
  534PAPC   PO4 6557  15.023   4.412   7.610  0.1019  0.0636 -0.3733
  534PAPC   GL1 6558  15.060   4.390   7.262 -0.3462  0.1368  0.1411
  534PAPC   GL2 6559  14.789   4.290   7.155  0.1619  0.1257  0.2071
  534PAPC   C1A 6560  15.335   4.165   7.144 -0.2569  0.0559  0.1582
  534PAPC   D2A 6561  15.480   3.788   7.195  0.3338 -0.1426 -0.0362
  534PAPC   D3A 6562  15.792   3.800   6.869  0.1946  0.1192 -0.1358
  534PAPC   D4A 6563  15.838   4.026   6.566 -0.2371  0.1880 -0.1625
  534PAPC   C5A 6564  15.729   4.050   6.067  0.1587 -0.2627 -0.0181
  534PAPC   C1B 6565  14.924   4.178   6.849  0.1083  0.1832 -0.1209
  534PAPC   C2B 6566  14.913   4.099   6.483  0.1734  0.0257  0.0253
  534PAPC   C3B 6567  14.892   3.825   6.070 -0.0828  0.2236  0.0965
  534PAPC   C4B 6568  14.874   4.046   5.664 -0.0451 -0.2748  0.0184
  535PAPC   NC3 6569  16.648  10.820   7.822 -0.1277 -0.0356  0.1299
  535PAPC   PO4 6570  16.308  10.624   7.707 -0.3023 -0.0335  0.1643
  535PAPC   GL1 6571  16.436  10.641   7.332 -0.0117  0.1665  0.1048
  535PAPC   GL2 6572  16.691  10.782   7.346  0.2823  0.0827  0.0856
  535PAPC   C1A 6573  16.353  10.410   7.033  0.3615 -0.0134 -0.1850
  535PAPC   D2A 6574  16.365   9.998   7.024  0.0787 -0.3068  0.1870
  535PAPC   D3A 6575  16.218   9.634   6.709  0.1225 -0.3037  0.0023
  535PAPC   D4A 6576  16.369   9.725   6.307 -0.0059  0.3655  0.0114
  535PAPC   C5A 6577  16.459  10.131   5.958 -0.2359 -0.2117 -0.0887
  535PAPC   C1B 6578  16.562  10.958   7.033  0.0734  0.1271  0.1997
  535PAPC   C2B 6579  16.495  11.182   6.653  0.3845  0.3056  0.3211
  535PAPC   C3B 6580  16.359  11.126   6.202 -0.1746 -0.0949 -0.1766
  535PAPC   C4B 6581  16.324  10.974   5.740 -0.0146  0.1587  0.0159
  536PAPC   NC3 6582  18.232  13.075   7.102  0.1636  0.1615 -0.1259
  536PAPC   PO4 6583  18.630  13.061   7.178  0.4340 -0.1131 -0.0537
  536PAPC   GL1 6584  18.842  13.265   6.872 -0.2170 -0.1101 -0.0239
  536PAPC   GL2 6585  18.546  13.387   6.808  0.0866  0.2791  0.1942
  536PAPC   C1A 6586  18.971  13.254   6.528 -0.1190 -0.0550  0.3121
  536PAPC   D2A 6587  19.042  13.184   6.140  0.1096 -0.0869 -0.0411
  536PAPC   D3A 6588  19.438  13.389   5.918  0.2335 -0.0791  0.0279
  536PAPC   D4A 6589  19.805  13.196   6.197 -0.0204 -0.0554 -0.0662
  536PAPC   C5A 6590  19.892  13.023   5.774  0.1719  0.1592 -0.2352
  536PAPC   C1B 6591  18.510  13.442   6.421  0.0517 -0.1380 -0.2073
  536PAPC   C2B 6592  18.421  13.399   6.050  0.3566  0.2574 -0.2005
  536PAPC   C3B 6593  18.351  13.316   5.548  0.4522 -0.4903 -0.5529
  536PAPC   C4B 6594  18.094  13.060   5.185 -0.1182  0.1667 -0.0388
  537PAPC   NC3 6595  24.211   8.220   8.165  0.2182  0.2534 -0.0733
  537PAPC   PO4 6596  24.211   8.123   7.787 -0.1593 -0.1011  0.1646
  537PAPC   GL1 6597  24.112   8.404   7.492  0.0459  0.0064 -0.0281
  537PAPC   GL2 6598  23.792   8.380   7.447 -0.0466 -0.0254  0.1918
  537PAPC   C1A 6599  24.093   8.663   7.206  0.0902  0.1993  0.2513
  537PAPC   D2A 6600  24.446   8.870   7.205  0.2113 -0.0360  0.0394
  537PAPC   D3A 6601  24.702   9.072   6.887  0.1498  0.0535 -0.2089
  537PAPC   D4A 6602  24.614   9.017   6.462  0.2425 -0.0938  0.3320
  537PAPC   C5A 6603  24.517   9.400   6.118  0.2660 -0.2451  0.0989
  537PAPC   C1B 6604  23.607   8.256   7.110 -0.2219 -0.0798 -0.2841
  537PAPC   C2B 6605  23.530   8.198   6.704  0.0822 -0.0455  0.0170
  537PAPC   C3B 6606  23.527   8.189   6.234 -0.4249  0.2212 -0.1009
  537PAPC   C4B 6607  23.644   7.996   5.848  0.0529 -0.1215  0.1469
  538PAPC   NC3 6608  15.854  11.786   7.256  0.0075 -0.1961  0.1263
  538PAPC   PO4 6609  15.565  12.016   7.123  0.1426  0.1457  0.0872
  538PAPC   GL1 6610  15.548  12.065   6.772  0.0141  0.1678 -0.0602
  538PAPC   GL2 6611  15.841  11.957   6.703 -0.3735 -0.0856  0.2034
  538PAPC   C1A 6612  15.384  11.822   6.506  0.0768  0.0187  0.1204
  538PAPC   D2A 6613  15.100  11.571   6.461  0.4398 -0.1493 -0.1465
  538PAPC   D3A 6614  14.703  11.421   6.300  0.3248  0.0459 -0.1293
  538PAPC   D4A 6615  14.579  11.159   5.945  0.1082 -0.1285 -0.1680
  538PAPC   C5A 6616  14.780  10.754   5.775  0.0569  0.1015 -0.3045
  538PAPC   C1B 6617  15.770  11.679   6.460 -0.3135  0.1316  0.0134
  538PAPC   C2B 6618  16.006  11.506   6.179  0.1073 -0.2359 -0.1619
  538PAPC   C3B 6619  16.229  11.440   5.749 -0.1426 -0.2766 -0.1550
  538PAPC   C4B 6620  16.531  11.322   5.407 -0.0320  0.1850  0.0943
  539PAPC   NC3 6621  13.923  23.722   8.333  0.1092  0.0255  0.1058
  539PAPC   PO4 6622  13.705  23.417   8.143 -0.0564 -0.0855  0.3496
  539PAPC   GL1 6623  13.590  23.639   7.838  0.2645 -0.3627 -0.1654
  539PAPC   GL2 6624  13.718  23.444   7.702 -0.1681 -0.1241 -0.1043
  539PAPC   C1A 6625  13.514  23.962   7.735  0.0035  0.1044 -0.1125
  539PAPC   D2A 6626  13.510  24.338   7.866 -0.0172 -0.3716  0.1131
  539PAPC   D3A 6627  13.293  24.583   7.558 -0.0782  0.1289  0.1850
  539PAPC   D4A 6628  12.948  24.546   7.307 -0.2622  0.0312 -0.1510
  539PAPC   C5A 6629  12.789  24.244   7.078  0.0134 -0.2451  0.3903
  539PAPC   C1B 6630  13.721  23.293   7.344  0.4973 -0.0575 -0.0245
  539PAPC   C2B 6631  13.674  23.131   6.957 -0.2407 -0.2036 -0.3430
  539PAPC   C3B 6632  13.865  22.782   6.687 -0.0366  0.0183 -0.1711
  539PAPC   C4B 6633  13.895  22.605   6.257 -0.2379  0.2610  0.2083
  540PAPC   NC3 6634  22.724   3.078   7.605 -0.0084  0.0029  0.3944
  540PAPC   PO4 6635  22.855   3.437   7.689  0.3569 -0.1009  0.1955
  540PAPC   GL1 6636  22.885   3.572   7.412 -0.1056 -0.0804 -0.0083
  540PAPC   GL2 6637  23.138   3.673   7.429  0.0459  0.0899  0.4065
  540PAPC   C1A 6638  22.701   3.460   7.079  0.1849  0.0438 -0.2825
  540PAPC   D2A 6639  22.605   3.301   6.754 -0.1043  0.0669 -0.1080
  540PAPC   D3A 6640  22.574   3.376   6.360 -0.5453 -0.1225 -0.0758
  540PAPC   D4A 6641  22.461   3.004   6.065  0.1195 -0.2789 -0.4575
  540PAPC   C5A 6642  22.463   2.958   5.527  0.2200 -0.3567  0.1746
  540PAPC   C1B 6643  23.319   3.780   7.110 -0.1613  0.1014 -0.4487
  540PAPC   C2B 6644  23.566   3.806   6.777  0.2033 -0.0853  0.0848
  540PAPC   C3B 6645  23.866   3.773   6.395  0.1492 -0.0265 -0.0036
  540PAPC   C4B 6646  24.106   3.911   5.971  0.1234 -0.0623  0.1564
  541PAPC   NC3 6647   4.710  16.092   7.566 -0.0964  0.0355  0.3968
  541PAPC   PO4 6648   4.392  16.291   7.432 -0.3082  0.0414 -0.3841
  541PAPC   GL1 6649   4.219  16.050   7.208  0.0200  0.2772 -0.0295
  541PAPC   GL2 6650   4.399  15.840   7.103 -0.1557 -0.0705  0.3843
  541PAPC   C1A 6651   4.013  16.138   6.951 -0.3551 -0.0188  0.0771
  541PAPC   D2A 6652   3.802  16.387   6.636  0.0154  0.3094  0.3559
  541PAPC   D3A 6653   3.830  16.010   6.359  0.1884  0.1120 -0.0221
  541PAPC   D4A 6654   3.726  15.595   6.239 -0.0031  0.1213 -0.1210
  541PAPC   C5A 6655   3.561  15.188   5.928  0.2862 -0.1837 -0.2465
  541PAPC   C1B 6656   4.590  16.061   6.867 -0.1520  0.0441 -0.2962
  541PAPC   C2B 6657   4.639  16.171   6.426 -0.1729 -0.0751 -0.1201
  541PAPC   C3B 6658   4.854  16.241   5.920 -0.0023 -0.0274 -0.1900
  541PAPC   C4B 6659   4.791  16.442   5.425 -0.1510  0.1109 -0.0301
  542PAPC   NC3 6660  20.546   8.615   7.386  0.1643  0.1168  0.3539
  542PAPC   PO4 6661  20.295   8.414   7.217  0.1932  0.0204 -0.2567
  542PAPC   GL1 6662  20.277   8.094   6.843 -0.3437  0.3592 -0.0148
  542PAPC   GL2 6663  20.391   8.358   6.700 -0.0613 -0.2232  0.1822
  542PAPC   C1A 6664  20.646   7.938   6.770  0.2566  0.3645 -0.1455
  542PAPC   D2A 6665  20.959   8.033   6.573  0.2062  0.0848 -0.0508
  542PAPC   D3A 6666  20.789   8.421   6.417  0.1059 -0.0425 -0.1091
  542PAPC   D4A 6667  20.852   8.677   6.109 -0.0663  0.0022  0.0945
  542PAPC   C5A 6668  20.715   8.420   5.689  0.0294  0.0611 -0.2515
  542PAPC   C1B 6669  20.292   8.530   6.403 -0.0071  0.2977 -0.1260
  542PAPC   C2B 6670  20.331   8.475   6.012  0.1554  0.1675 -0.3310
  542PAPC   C3B 6671  20.209   8.287   5.635  0.3758 -0.1328 -0.1850
  542PAPC   C4B 6672  20.099   8.293   5.150 -0.1976  0.1210 -0.0959
  543PAPC   NC3 6673  14.308  11.680   7.419 -0.2345 -0.1357  0.0116
  543PAPC   PO4 6674  13.962  11.837   7.595 -0.0376 -0.1078  0.2875
  543PAPC   GL1 6675  13.606  12.009   7.364  0.0838  0.1104  0.1619
  543PAPC   GL2 6676  13.822  12.245   7.296  0.1260 -0.0948  0.1994
  543PAPC   C1A 6677  13.394  11.938   7.036 -0.1036  0.2794 -0.2718
  543PAPC   D2A 6678  13.160  11.703   6.829 -0.1759 -0.0090  0.1348
  543PAPC   D3A 6679  13.314  11.774   6.505  0.1131  0.2570 -0.0443
  543PAPC   D4A 6680  13.248  11.785   6.011  0.0508 -0.5822  0.1613
  543PAPC   C5A 6681  13.667  12.081   5.842  0.0594 -0.2533  0.1568
  543PAPC   C1B 6682  13.678  12.285   6.937 -0.1267  0.0247  0.1103
  543PAPC   C2B 6683  13.679  12.398   6.534  0.2276  0.0663  0.1317
  543PAPC   C3B 6684  13.752  12.500   6.078  0.1162  0.1937  0.0597
  543PAPC   C4B 6685  13.878  12.604   5.607  0.1446  0.0636  0.1896
  544PAPC   NC3 6686  24.443  10.956   7.589 -0.0777  0.1912 -0.0286
  544PAPC   PO4 6687  24.399  11.296   7.737  0.0528 -0.1596 -0.2859
  544PAPC   GL1 6688  24.347  11.436   7.348 -0.1136  0.3045  0.2457
  544PAPC   GL2 6689  24.594  11.646   7.427  0.0177 -0.2871  0.0419
  544PAPC   C1A 6690  24.401  11.349   6.932  0.1816 -0.2888  0.0762
  544PAPC   D2A 6691  24.483  11.273   6.554 -0.0185 -0.2512  0.3444
  544PAPC   D3A 6692  24.425  11.187   6.142  0.0421 -0.0776 -0.1697
  544PAPC   D4A 6693  24.839  11.276   6.073  0.1632 -0.0523 -0.0955
  544PAPC   C5A 6694  24.617  11.614   6.226 -0.0758 -0.3811 -0.3552
  544PAPC   C1B 6695  24.761  11.619   7.072 -0.1462  0.1436  0.0875
  544PAPC   C2B 6696  24.952  11.615   6.718  0.0654  0.1030  0.0775
  544PAPC   C3B 6697  25.163  11.585   6.268  0.1481 -0.2428 -0.1397
  544PAPC   C4B 6698  25.543  11.638   5.915  0.3724  0.0693 -0.0865
  545PAPC   NC3 6699   8.462  22.999   7.929  0.1638  0.2368  0.3962
  545PAPC   PO4 6700   8.617  23.293   7.759 -0.0254 -0.1078 -0.0565
  545PAPC   GL1 6701   8.478  23.476   7.464 -0.3883 -0.0497 -0.1394
  545PAPC   GL2 6702   8.528  23.742   7.376  0.3147 -0.1073  0.0879
  545PAPC   C1A 6703   8.545  23.311   7.122  0.0629 -0.0580  0.0819
  545PAPC   D2A 6704   8.681  22.986   6.943 -0.0002  0.1149  0.2530
  545PAPC   D3A 6705   8.713  23.138   6.534 -0.0542 -0.0194 -0.4081
  545PAPC   D4A 6706   9.050  23.289   6.223  0.2539  0.3022  0.2244
  545PAPC   C5A 6707   8.949  23.531   5.804 -0.1770 -0.0053  0.0786
  545PAPC   C1B 6708   8.567  23.903   7.053  0.0175 -0.0226 -0.3277
  545PAPC   C2B 6709   8.698  24.267   6.803  0.0428  0.1346 -0.0832
  545PAPC   C3B 6710   8.757  24.377   6.337  0.0359  0.0264 -0.1276
  545PAPC   C4B 6711   9.047  24.367   5.878 -0.1064  0.1553  0.0676
  546PAPC   NC3 6712  18.969  15.095   7.581  0.0544  0.4901 -0.0443
  546PAPC   PO4 6713  19.135  14.822   7.294  0.2078  0.3181  0.0227
  546PAPC   GL1 6714  19.181  14.920   6.914  0.0310  0.0780 -0.3517
  546PAPC   GL2 6715  19.081  15.174   6.766 -0.3166  0.0625  0.4069
  546PAPC   C1A 6716  19.299  14.719   6.640  0.5333  0.0863 -0.1662
  546PAPC   D2A 6717  19.283  14.372   6.415 -0.3005 -0.0403  0.2031
  546PAPC   D3A 6718  19.337  14.353   5.974 -0.0999 -0.1552 -0.0668
  546PAPC   D4A 6719  19.453  14.545   5.581 -0.1745  0.1292  0.0912
  546PAPC   C5A 6720  19.071  14.739   5.399 -0.0075 -0.1935 -0.2343
  546PAPC   C1B 6721  18.868  15.134   6.448 -0.1050  0.0637 -0.2933
  546PAPC   C2B 6722  18.608  14.986   6.187  0.1330  0.2963 -0.2431
  546PAPC   C3B 6723  18.516  14.797   5.793  0.5077 -0.1017 -0.3822
  546PAPC   C4B 6724  18.544  14.599   5.351  0.1819 -0.0651 -0.0005
  547PAPC   NC3 6725  17.657   3.808   7.091 -0.0467 -0.0395 -0.1328
  547PAPC   PO4 6726  17.685   4.231   7.057  0.2595  0.1170 -0.2167
  547PAPC   GL1 6727  17.538   4.196   6.697  0.3253  0.1835 -0.2538
  547PAPC   GL2 6728  17.540   4.472   6.670 -0.3887 -0.1291  0.1151
  547PAPC   C1A 6729  17.468   4.052   6.403 -0.2788  0.2704  0.0599
  547PAPC   D2A 6730  17.515   4.172   6.079 -0.1686  0.1070  0.2245
  547PAPC   D3A 6731  17.575   4.479   5.760  0.0239 -0.1194 -0.0417
  547PAPC   D4A 6732  17.461   4.582   5.371  0.0240  0.3136 -0.0154
  547PAPC   C5A 6733  17.401   4.511   4.903 -0.3518 -0.1193 -0.1218
  547PAPC   C1B 6734  17.416   4.502   6.319 -0.1237 -0.3818 -0.2230
  547PAPC   C2B 6735  17.100   4.522   6.062  0.2522 -0.0694 -0.1508
  547PAPC   C3B 6736  16.855   4.584   5.615 -0.3498  0.1713  0.0152
  547PAPC   C4B 6737  16.592   5.007   5.461  0.1629 -0.0935 -0.1463
  548PAPC   NC3 6738  20.704  13.202   6.903 -0.0784 -0.2344 -0.0367
  548PAPC   PO4 6739  20.365  13.375   6.986  0.2065  0.0745  0.1850
  548PAPC   GL1 6740  20.220  13.207   6.656  0.1159  0.0869 -0.5482
  548PAPC   GL2 6741  20.453  13.055   6.543 -0.0940 -0.0713 -0.1075
  548PAPC   C1A 6742  20.205  13.432   6.401  0.1208 -0.3463  0.0349
  548PAPC   D2A 6743  20.376  13.206   6.070 -0.0061  0.0142  0.1264
  548PAPC   D3A 6744  20.465  13.048   5.664  0.0089 -0.0687 -0.1806
  548PAPC   D4A 6745  20.158  12.720   5.565  0.1606 -0.5609  0.0999
  548PAPC   C5A 6746  20.186  12.326   5.375 -0.0949 -0.0394  0.1036
  548PAPC   C1B 6747  20.711  13.324   6.395 -0.0666 -0.3194  0.0898
  548PAPC   C2B 6748  20.705  13.522   5.986  0.0542  0.0222 -0.2033
  548PAPC   C3B 6749  20.664  13.811   5.657  0.0006  0.0106  0.1929
  548PAPC   C4B 6750  20.690  14.146   5.207  0.0369  0.4379 -0.2589
  549PAPC   NC3 6751  19.821   0.837   7.917  0.1124 -0.0149 -0.5081
  549PAPC   PO4 6752  20.119   0.705   7.709  0.1230 -0.0004 -0.1729
  549PAPC   GL1 6753  20.334   0.698   7.409  0.1942  0.1197  0.1740
  549PAPC   GL2 6754  20.247   0.377   7.328 -0.2663  0.0430 -0.1421
  549PAPC   C1A 6755  20.322   0.837   7.063 -0.0078  0.0576 -0.2916
  549PAPC   D2A 6756  20.156   1.009   6.790 -0.1788  0.3128 -0.0270
  549PAPC   D3A 6757  19.725   1.127   6.861  0.1477  0.2509  0.0868
  549PAPC   D4A 6758  19.912   1.478   6.986  0.0179  0.1988 -0.2488
  549PAPC   C5A 6759  20.356   1.617   7.056  0.2114 -0.0595  0.1498
  549PAPC   C1B 6760  20.117   0.385   7.025 -0.3165 -0.0718 -0.0367
  549PAPC   C2B 6761  20.194   0.536   6.629 -0.0037 -0.3488  0.1876
  549PAPC   C3B 6762  20.029   0.738   6.272 -0.1300 -0.1935 -0.3135
  549PAPC   C4B 6763  19.824   1.092   5.947  0.1022  0.0781  0.1560
  550PAPC   NC3 6764  19.920  18.326   6.959 -0.1501 -0.0145  0.0884
  550PAPC   PO4 6765  19.917  18.738   7.085 -0.0707 -0.0471 -0.1338
  550PAPC   GL1 6766  19.678  18.843   6.786  0.2940 -0.0771 -0.1114
  550PAPC   GL2 6767  19.785  18.680   6.611 -0.0444  0.2412 -0.2621
  550PAPC   C1A 6768  19.629  19.043   6.479 -0.2769 -0.1572  0.1153
  550PAPC   D2A 6769  19.495  19.185   6.103 -0.0624 -0.1890 -0.0562
  550PAPC   D3A 6770  19.916  19.167   5.885 -0.1055  0.0744 -0.1959
  550PAPC   D4A 6771  20.010  19.225   6.338 -0.1915  0.1471  0.2432
  550PAPC   C5A 6772  20.409  19.014   6.218 -0.0814 -0.1703  0.0472
  550PAPC   C1B 6773  19.932  18.730   6.261 -0.3741  0.1288 -0.2553
  550PAPC   C2B 6774  20.134  18.744   5.917  0.2297 -0.0634 -0.5509
  550PAPC   C3B 6775  20.234  18.833   5.486 -0.0175 -0.0838  0.1567
  550PAPC   C4B 6776  19.948  18.825   5.023  0.1888  0.3963 -0.1190
  551PAPC   NC3 6777  20.348  16.784   7.579  0.3522 -0.1406 -0.1648
  551PAPC   PO4 6778  20.068  16.956   7.786  0.1024  0.2193 -0.1343
  551PAPC   GL1 6779  19.775  17.350   7.540  0.4872 -0.1306  0.1652
  551PAPC   GL2 6780  19.779  17.061   7.404 -0.2538 -0.0746  0.2206
  551PAPC   C1A 6781  19.870  17.609   7.246  0.0311 -0.0327  0.1185
  551PAPC   D2A 6782  19.630  17.780   6.961  0.0364 -0.1829 -0.0021
  551PAPC   D3A 6783  19.530  17.905   6.512 -0.0570 -0.1012 -0.2042
  551PAPC   D4A 6784  19.675  18.245   6.319 -0.2299  0.0071  0.4328
  551PAPC   C5A 6785  20.170  18.273   6.349 -0.0452  0.4826 -0.1865
  551PAPC   C1B 6786  19.775  16.896   7.073 -0.0513  0.0097 -0.2028
  551PAPC   C2B 6787  19.717  16.876   6.669  0.1790 -0.0917 -0.1497
  551PAPC   C3B 6788  19.873  16.807   6.228 -0.3137  0.1757  0.2138
  551PAPC   C4B 6789  20.050  16.759   5.810  0.2345 -0.0387 -0.0974
  552PAPC   NC3 6790  19.038  16.555   7.598  0.1880 -0.3288  0.1949
  552PAPC   PO4 6791  18.888  16.205   7.642  0.2068 -0.1138 -0.1561
  552PAPC   GL1 6792  18.667  16.095   7.219  0.2052  0.1717  0.0611
  552PAPC   GL2 6793  18.523  16.402   7.351 -0.2523  0.1088  0.1970
  552PAPC   C1A 6794  18.751  16.043   6.884 -0.1961 -0.0474  0.2354
  552PAPC   D2A 6795  18.753  16.066   6.456  0.0705 -0.0312  0.0033
  552PAPC   D3A 6796  18.415  15.928   6.119  0.0818 -0.0183  0.1965
  552PAPC   D4A 6797  18.350  15.816   5.694 -0.0884  0.0267  0.1016
  552PAPC   C5A 6798  18.544  15.452   5.934  0.2673 -0.1638  0.1052
  552PAPC   C1B 6799  18.689  16.749   7.243 -0.1526 -0.2187 -0.1803
  552PAPC   C2B 6800  18.725  16.966   6.944  0.2745 -0.0073 -0.0548
  552PAPC   C3B 6801  18.830  17.255   6.589 -0.1308  0.2061  0.0464
  552PAPC   C4B 6802  18.944  17.369   6.116  0.0428 -0.1675  0.1901
  553PAPC   NC3 6803  19.374  23.948   8.368 -0.0556  0.1857 -0.0413
  553PAPC   PO4 6804  19.628  23.817   8.056  0.0592 -0.3176 -0.1755
  553PAPC   GL1 6805  19.722  23.879   7.622 -0.0291  0.2157 -0.1046
  553PAPC   GL2 6806  19.396  23.877   7.646 -0.5282 -0.1707 -0.2212
  553PAPC   C1A 6807  19.803  23.895   7.281  0.2908  0.0961 -0.0301
  553PAPC   D2A 6808  19.940  23.897   6.890 -0.0925 -0.1137  0.4498
  553PAPC   D3A 6809  19.835  23.681   6.473 -0.1854  0.0717 -0.0526
  553PAPC   D4A 6810  19.710  23.912   6.080  0.3155 -0.2208 -0.0664
  553PAPC   C5A 6811  19.863  23.923   5.627  0.1058 -0.2228 -0.1574
  553PAPC   C1B 6812  19.391  23.739   7.290 -0.2156  0.5370 -0.1261
  553PAPC   C2B 6813  19.467  23.460   6.975  0.0744 -0.2307 -0.1683
  553PAPC   C3B 6814  19.304  23.319   6.538 -0.0701  0.1355  0.3235
  553PAPC   C4B 6815  19.537  23.285   6.095  0.0455 -0.0885  0.0995
  554PAPC   NC3 6816   1.798   6.943   8.323  0.0232 -0.2673  0.0574
  554PAPC   PO4 6817   1.869   6.813   7.950 -0.0485  0.1879 -0.2868
  554PAPC   GL1 6818   2.021   7.100   7.649 -0.2867 -0.0224 -0.4292
  554PAPC   GL2 6819   1.725   7.247   7.614  0.7490  0.4188  0.2429
  554PAPC   C1A 6820   2.071   7.163   7.268 -0.0678  0.3201  0.3089
  554PAPC   D2A 6821   2.184   7.177   6.882  0.0797 -0.3222 -0.2736
  554PAPC   D3A 6822   2.303   6.956   6.483  0.1329  0.0013  0.2934
  554PAPC   D4A 6823   2.707   6.868   6.205  0.0609  0.0670  0.0070
  554PAPC   C5A 6824   2.728   6.436   6.008 -0.0445 -0.0391 -0.3968
  554PAPC   C1B 6825   1.783   7.468   7.311 -0.0790  0.2163  0.1723
  554PAPC   C2B 6826   1.849   7.511   6.918 -0.3158  0.2495 -0.3593
  554PAPC   C3B 6827   1.925   7.317   6.451 -0.0103  0.2926 -0.2118
  554PAPC   C4B 6828   2.020   7.073   6.098  0.1891 -0.1865  0.0692
  555PAPC   NC3 6829  24.269   0.166   7.461  0.0568 -0.0301  0.0996
  555PAPC   PO4 6830  24.291   0.524   7.622  0.0326  0.1421 -0.1683
  555PAPC   GL1 6831  24.267   0.895   7.391  0.0646 -0.1097  0.2347
  555PAPC   GL2 6832  24.324   0.607   7.206  0.2711 -0.3898  0.0212
  555PAPC   C1A 6833  24.240   1.151   7.153  0.1701 -0.1913  0.1128
  555PAPC   D2A 6834  24.209   1.533   7.106  0.0741 -0.3213 -0.1590
  555PAPC   D3A 6835  23.944   1.789   6.795 -0.2855  0.0638  0.4135
  555PAPC   D4A 6836  23.582   1.762   6.554  0.0628  0.2115  0.1634
  555PAPC   C5A 6837  23.267   2.025   6.320  0.4588  0.0637 -0.1310
  555PAPC   C1B 6838  24.208   0.592   6.892  0.0059 -0.1574 -0.1878
  555PAPC   C2B 6839  24.379   0.660   6.560 -0.2092 -0.0612  0.0790
  555PAPC   C3B 6840  24.529   0.638   6.090  0.1489  0.0924  0.0211
  555PAPC   C4B 6841  24.626   0.700   5.577  0.0526  0.0396  0.3291
  556PAPC   NC3 6842  14.773  11.205   6.769 -0.4289  0.0431 -0.1183
  556PAPC   PO4 6843  14.856  10.894   7.009  0.0912  0.0222 -0.0816
  556PAPC   GL1 6844  14.744  10.572   6.819  0.0201  0.3073  0.1129
  556PAPC   GL2 6845  14.797  10.790   6.558 -0.1628  0.1047 -0.0130
  556PAPC   C1A 6846  14.572  10.384   6.534  0.0128 -0.0623  0.0230
  556PAPC   D2A 6847  14.310  10.196   6.571 -0.2795  0.1521 -0.3412
  556PAPC   D3A 6848  14.228   9.750   6.622 -0.3091  0.1293  0.3748
  556PAPC   D4A 6849  14.130   9.447   6.347  0.1303  0.3145 -0.1319
  556PAPC   C5A 6850  14.449   9.147   6.509 -0.2028 -0.2666 -0.0425
  556PAPC   C1B 6851  14.601  10.691   6.254  0.3010  0.2215  0.0598
  556PAPC   C2B 6852  14.637  10.337   5.965 -0.0894  0.0385  0.5083
  556PAPC   C3B 6853  15.069  10.193   5.738 -0.2563  0.1619  0.3079
  556PAPC   C4B 6854  15.501  10.229   5.446 -0.1732 -0.0927 -0.0250
  557PAPC   NC3 6855  27.612   1.155   7.579  0.0585 -0.0884 -0.1502
  557PAPC   PO4 6856  27.890   1.398   7.419  0.0674  0.0687 -0.1323
  557PAPC   GL1 6857  28.069   1.513   7.057 -0.1640 -0.2053  0.1971
  557PAPC   GL2 6858  27.918   1.310   6.932 -0.0953  0.0201  0.0273
  557PAPC   C1A 6859  27.975   1.703   6.780 -0.1577  0.1368  0.0532
  557PAPC   D2A 6860  27.961   1.932   6.440  0.0736  0.1453  0.1026
  557PAPC   D3A 6861  28.059   1.925   6.034  0.1358 -0.2231 -0.4014
  557PAPC   D4A 6862  28.120   1.596   5.757  0.0279  0.0608 -0.1332
  557PAPC   C5A 6863  28.085   1.537   5.258 -0.0127  0.2670 -0.0552
  557PAPC   C1B 6864  27.836   1.373   6.586 -0.3362  0.2638  0.1057
  557PAPC   C2B 6865  27.836   1.514   6.213  0.2624  0.2540 -0.0621
  557PAPC   C3B 6866  27.612   1.739   5.763 -0.0205 -0.0984 -0.0480
  557PAPC   C4B 6867  27.838   1.985   5.403 -0.1817  0.0508 -0.0851
  558PAPC   NC3 6868   3.556  25.197   8.128  0.1158  0.3091 -0.0354
  558PAPC   PO4 6869   3.669  25.471   7.880 -0.0820  0.0957  0.3644
  558PAPC   GL1 6870   3.800  25.322   7.490 -0.3170 -0.0591 -0.1015
  558PAPC   GL2 6871   4.027  25.273   7.538 -0.0977 -0.2388 -0.0661
  558PAPC   C1A 6872   3.581  25.231   7.165  0.0396 -0.4268 -0.0417
  558PAPC   D2A 6873   3.656  25.359   6.774 -0.2245  0.0354  0.0915
  558PAPC   D3A 6874   3.521  25.350   6.322  0.0890 -0.1034 -0.1178
  558PAPC   D4A 6875   3.451  25.157   5.906 -0.1360  0.3726  0.0480
  558PAPC   C5A 6876   3.468  25.478   5.557  0.0852 -0.1245  0.0233
  558PAPC   C1B 6877   4.107  25.519   7.262  0.0184  0.1047 -0.3251
  558PAPC   C2B 6878   4.050  25.594   6.910 -0.1744 -0.0540  0.2820
  558PAPC   C3B 6879   3.940  25.639   6.416  0.1401 -0.0032  0.0973
  558PAPC   C4B 6880   3.694  25.643   5.958  0.0726 -0.0609  0.3475
  559PAPC   NC3 6881  13.051   1.539   7.673 -0.1557  0.2371 -0.0275
  559PAPC   PO4 6882  13.057   1.176   7.821 -0.1818 -0.0254 -0.0712
  559PAPC   GL1 6883  13.412   1.205   7.530 -0.4236  0.1768 -0.1312
  559PAPC   GL2 6884  13.238   1.273   7.329 -0.2098 -0.1439  0.0118
  559PAPC   C1A 6885  13.581   0.946   7.324 -0.5827  0.0274  0.0790
  559PAPC   D2A 6886  13.676   0.870   6.919 -0.3151  0.0111 -0.1885
  559PAPC   D3A 6887  13.859   1.132   6.513  0.1187  0.0541 -0.1527
  559PAPC   D4A 6888  13.872   1.074   6.048 -0.0783 -0.1367 -0.0069
  559PAPC   C5A 6889  14.055   0.709   6.304 -0.0847  0.1062 -0.1395
  559PAPC   C1B 6890  13.408   1.282   7.000 -0.1900 -0.1968 -0.1068
  559PAPC   C2B 6891  13.360   1.174   6.568 -0.2287 -0.3085 -0.2795
  559PAPC   C3B 6892  13.389   1.188   6.088  0.1874 -0.0776  0.0139
  559PAPC   C4B 6893  13.208   1.174   5.617 -0.0303  0.0560 -0.2165
  560PAPC   NC3 6894   9.733  25.602   7.959  0.0897  0.2308  0.2900
  560PAPC   PO4 6895   9.409  25.715   7.822 -0.0648  0.1104 -0.2290
  560PAPC   GL1 6896   9.496  25.634   7.349  0.3840  0.1895 -0.3267
  560PAPC   GL2 6897   9.252  25.800   7.332 -0.4170 -0.1418  0.0985
  560PAPC   C1A 6898   9.691  25.416   7.112  0.1464 -0.1520 -0.6931
  560PAPC   D2A 6899   9.835  25.257   6.881  0.2031  0.4008  0.1823
  560PAPC   D3A 6900   9.999  24.936   6.638 -0.1233 -0.1488  0.0236
  560PAPC   D4A 6901  10.293  24.654   6.394  0.1630  0.2048 -0.2079
  560PAPC   C5A 6902  10.103  24.624   5.960 -0.1234 -0.1560 -0.3956
  560PAPC   C1B 6903   8.976  25.655   7.199  0.0425  0.3429  0.0909
  560PAPC   C2B 6904   8.654  25.580   6.949 -0.2493  0.0572  0.4980
  560PAPC   C3B 6905   8.567  25.378   6.530 -0.2471 -0.0464 -0.0955
  560PAPC   C4B 6906   8.508  25.237   6.078  0.1738 -0.0159 -0.0592
  561POPE   NH3 6907  24.528  17.182   7.971 -0.0041 -0.1531  0.0168
  561POPE   PO4 6908  24.306  16.947   7.838 -0.2197 -0.0115  0.0125
  561POPE   GL1 6909  24.548  16.787   7.503 -0.0329  0.2627  0.0690
  561POPE   GL2 6910  24.467  16.459   7.465 -0.3011  0.1038 -0.0326
  561POPE   C1A 6911  24.531  17.074   7.202  0.0626  0.3293  0.0324
  561POPE   D2A 6912  24.200  17.126   6.805  0.3814  0.0898  0.2040
  561POPE   C3A 6913  23.845  16.889   6.511  0.1458 -0.1777 -0.1202
  561POPE   C4A 6914  23.494  16.930   6.188  0.0496  0.4543 -0.3021
  561POPE   C1B 6915  24.529  16.622   7.127  0.1905 -0.1223 -0.6049
  561POPE   C2B 6916  24.718  16.821   6.795 -0.0223 -0.0847 -0.5647
  561POPE   C3B 6917  24.791  16.939   6.391 -0.0838  0.0437  0.1158
  561POPE   C4B 6918  25.018  16.718   6.080 -0.2660  0.1541  0.1239
  562POPE   NH3 6919   7.360   5.804   7.367 -0.3239 -0.2944 -0.0281
  562POPE   PO4 6920   7.384   5.465   7.487 -0.0084  0.0667  0.3711
  562POPE   GL1 6921   7.490   5.271   7.136  0.0816  0.2449 -0.0924
  562POPE   GL2 6922   7.279   5.144   7.071 -0.0305 -0.1906 -0.1353
  562POPE   C1A 6923   7.567   5.425   6.695 -0.1617  0.2000 -0.0062
  562POPE   D2A 6924   7.484   5.313   6.183  0.0067 -0.1174  0.0173
  562POPE   C3A 6925   7.496   5.298   5.725 -0.1846  0.0587 -0.0588
  562POPE   C4A 6926   7.428   5.228   5.305  0.1188 -0.1212  0.0474
  562POPE   C1B 6927   7.240   5.057   6.677 -0.1875 -0.3041 -0.0164
  562POPE   C2B 6928   7.245   4.910   6.287  0.0622 -0.2296 -0.2944
  562POPE   C3B 6929   7.276   4.878   5.808 -0.0336 -0.1211 -0.1575
  562POPE   C4B 6930   7.373   4.701   5.359  0.0076 -0.1438  0.1254
  563POPE   NH3 6931   1.018   6.951   8.318  0.0535 -0.1958  0.2401
  563POPE   PO4 6932   1.284   7.177   8.309  0.1806 -0.2410 -0.0737
  563POPE   GL1 6933   1.324   7.209   7.832  0.2468 -0.0116  0.1377
  563POPE   GL2 6934   1.034   7.107   7.856  0.2529 -0.1052 -0.1430
  563POPE   C1A 6935   1.371   6.988   7.527 -0.0940  0.0236 -0.1488
  563POPE   D2A 6936   1.575   7.161   7.075  0.1428  0.2827 -0.0982
  563POPE   C3A 6937   1.402   7.157   6.629 -0.2456 -0.2114  0.0519
  563POPE   C4A 6938   1.573   6.936   6.269  0.0936  0.2764 -0.0079
  563POPE   C1B 6939   0.844   6.877   7.566  0.5670  0.2720 -0.3728
  563POPE   C2B 6940   0.966   6.680   7.199  0.1204  0.1019  0.1382
  563POPE   C3B 6941   1.100   6.295   6.880  0.3294  0.1034  0.2584
  563POPE   C4B 6942   1.288   5.889   6.874  0.2165  0.0866 -0.0562
  564POPE   NH3 6943  15.362  24.027   7.398 -0.1630  0.1409 -0.1851
  564POPE   PO4 6944  15.520  23.706   7.256  0.0350 -0.0913 -0.2339
  564POPE   GL1 6945  15.269  23.713   6.852  0.0055 -0.0204 -0.1997
  564POPE   GL2 6946  15.161  23.952   6.959  0.1828  0.0773  0.1989
  564POPE   C1A 6947  15.254  23.716   6.400  0.0346  0.3779  0.0886
  564POPE   D2A 6948  15.480  23.914   6.011 -0.3573  0.1152 -0.1642
  564POPE   C3A 6949  15.584  24.317   5.901  0.4243 -0.1439 -0.1094
  564POPE   C4A 6950  15.681  24.787   5.921 -0.0320  0.0402  0.1750
  564POPE   C1B 6951  14.970  24.004   6.634  0.2087 -0.1547  0.0033
  564POPE   C2B 6952  14.709  24.072   6.353  0.3263 -0.0719 -0.2103
  564POPE   C3B 6953  14.440  24.103   6.025 -0.1633 -0.2004 -0.2247
  564POPE   C4B 6954  13.968  23.996   6.061  0.0598 -0.1186 -0.0999
  565POPE   NH3 6955  24.487  25.197   7.616 -0.1707 -0.2811 -0.0128
  565POPE   PO4 6956  24.743  25.058   7.359  0.5767  0.0068  0.0907
  565POPE   GL1 6957  24.556  25.298   7.027 -0.2293 -0.0415 -0.5073
  565POPE   GL2 6958  24.689  25.077   6.834 -0.3221 -0.1145 -0.1344
  565POPE   C1A 6959  24.383  25.467   6.671 -0.1545  0.0525 -0.2546
  565POPE   D2A 6960  24.502  25.508   6.168  0.0156  0.1892 -0.1338
  565POPE   C3A 6961  24.769  25.554   5.814 -0.2091 -0.3002 -0.2634
  565POPE   C4A 6962  24.949  25.466   5.408  0.3057  0.0222  0.1510
  565POPE   C1B 6963  24.871  25.338   6.634  0.1896  0.0889 -0.0797
  565POPE   C2B 6964  25.022  25.336   6.251  0.0882  0.2168  0.0167
  565POPE   C3B 6965  25.259  25.410   5.817 -0.0567 -0.2876 -0.0188
  565POPE   C4B 6966  25.463  25.240   5.445  0.0484  0.0784  0.2942
  566POPE   NH3 6967  19.283  11.306   7.390  0.1074  0.2899  0.1208
  566POPE   PO4 6968  19.209  11.138   7.094 -0.1356  0.0795  0.1773
  566POPE   GL1 6969  19.390  11.173   6.784 -0.1069  0.2909  0.0871
  566POPE   GL2 6970  19.308  10.856   6.728 -0.0208  0.1224  0.1297
  566POPE   C1A 6971  19.765  11.389   6.578 -0.1537  0.1253  0.0825
  566POPE   D2A 6972  19.979  11.606   6.236  0.2536  0.0885 -0.1353
  566POPE   C3A 6973  20.394  11.676   6.077  0.4605  0.1173  0.1110
  566POPE   C4A 6974  20.337  11.923   5.603 -0.1784 -0.1454  0.0897
  566POPE   C1B 6975  19.256  10.717   6.367 -0.0748  0.0734  0.4781
  566POPE   C2B 6976  19.301  10.784   5.944  0.0211  0.1403 -0.0040
  566POPE   C3B 6977  19.168  10.974   5.481  0.1700  0.1183  0.0889
  566POPE   C4B 6978  19.231  11.033   4.983 -0.0782 -0.1228 -0.1720
  567POPE   NH3 6979  24.702  12.764   8.236  0.0313 -0.3230  0.1275
  567POPE   PO4 6980  24.919  12.731   7.964  0.1479  0.1104  0.1234
  567POPE   GL1 6981  24.651  12.856   7.674 -0.2729  0.1617  0.2509
  567POPE   GL2 6982  24.729  13.112   7.650  0.0540 -0.0320 -0.1337
  567POPE   C1A 6983  24.404  12.718   7.396  0.0741 -0.0255  0.1092
  567POPE   D2A 6984  24.103  12.274   7.296 -0.3196 -0.1713  0.0092
  567POPE   C3A 6985  24.298  11.831   7.129 -0.0346  0.0731 -0.2627
  567POPE   C4A 6986  24.382  11.803   6.691  0.0577 -0.2636 -0.1108
  567POPE   C1B 6987  24.695  13.083   7.274  0.1081  0.0580 -0.1058
  567POPE   C2B 6988  24.602  13.040   6.872  0.0838  0.1310 -0.1110
  567POPE   C3B 6989  24.548  13.011   6.382 -0.2281 -0.0080 -0.0994
  567POPE   C4B 6990  24.097  13.103   6.200  0.2837  0.0818  0.0078
  568POPE   NH3 6991  14.647  13.656   7.501  0.0078  0.0466  0.1807
  568POPE   PO4 6992  14.534  13.934   7.657  0.2320 -0.0655  0.0231
  568POPE   GL1 6993  14.633  14.072   7.292  0.1966 -0.1540  0.2391
  568POPE   GL2 6994  14.524  13.860   7.113 -0.4711 -0.2998  0.2232
  568POPE   C1A 6995  14.507  14.320   6.949 -0.0605  0.2810  0.0261
  568POPE   D2A 6996  14.404  14.430   6.447  0.0840 -0.1483 -0.1566
  568POPE   C3A 6997  14.292  14.615   6.096 -0.0675 -0.2176  0.1763
  568POPE   C4A 6998  14.395  14.862   5.700 -0.0304 -0.2251  0.1097
  568POPE   C1B 6999  14.424  13.888   6.772 -0.0582  0.4812  0.0067
  568POPE   C2B 7000  14.371  13.883   6.354  0.0713 -0.0144 -0.0365
  568POPE   C3B 7001  14.256  14.064   5.953 -0.0906 -0.1140 -0.0793
  568POPE   C4B 7002  14.135  14.003   5.421  0.1725 -0.0298  0.2136
  569POPE   NH3 7003  10.542   1.732   7.318  0.0584 -0.0381  0.1489
  569POPE   PO4 7004  10.548   1.426   7.431 -0.4441  0.1217 -0.0386
  569POPE   GL1 7005  10.397   1.325   7.051  0.1094  0.1882 -0.4699
  569POPE   GL2 7006  10.628   1.358   6.987  0.0201 -0.0159 -0.1011
  569POPE   C1A 7007  10.339   1.094   6.644  0.0482  0.2632 -0.0367
  569POPE   D2A 7008  10.027   1.026   6.282 -0.3241  0.0729  0.0469
  569POPE   C3A 7009  10.353   1.175   5.956 -0.1751 -0.1181  0.4289
  569POPE   C4A 7010  10.577   1.613   5.687  0.0841  0.1354 -0.3567
  569POPE   C1B 7011  10.759   1.319   6.682  0.1608  0.0369  0.0006
  569POPE   C2B 7012  10.784   1.196   6.256  0.1569  0.1991  0.1420
  569POPE   C3B 7013  10.863   1.211   5.716 -0.1632 -0.1280 -0.1423
  569POPE   C4B 7014  10.823   1.520   5.290 -0.2383  0.1333  0.1210
  570POPE   NH3 7015  19.627  15.902   7.662 -0.1296  0.0468  0.0827
  570POPE   PO4 7016  19.516  16.202   7.487  0.2423 -0.3246 -0.1601
  570POPE   GL1 7017  19.385  16.317   7.061  0.0192 -0.0397 -0.0631
  570POPE   GL2 7018  19.072  16.391   7.143  0.2465 -0.2966  0.0785
  570POPE   C1A 7019  19.190  16.249   6.681 -0.0353  0.3874  0.2724
  570POPE   D2A 7020  19.066  16.313   6.219  0.4444 -0.3976  0.3655
  570POPE   C3A 7021  19.365  16.216   5.766  0.0089 -0.0925 -0.0663
  570POPE   C4A 7022  19.434  16.107   5.281 -0.0009  0.1357 -0.1431
  570POPE   C1B 7023  18.868  16.480   6.861  0.1500  0.1490  0.1323
  570POPE   C2B 7024  18.665  16.575   6.547  0.0461 -0.1426  0.3418
  570POPE   C3B 7025  18.578  16.879   6.270  0.1204 -0.0634  0.1303
  570POPE   C4B 7026  18.310  16.940   5.917  0.1515  0.2288  0.1712
  571POPE   NH3 7027  24.048   9.877   7.606  0.2399 -0.3135  0.1536
  571POPE   PO4 7028  23.890   9.990   7.313 -0.0588  0.2405  0.0631
  571POPE   GL1 7029  23.825  10.120   6.938 -0.2781 -0.1849 -0.1997
  571POPE   GL2 7030  23.978  10.335   6.940 -0.1519 -0.2805  0.1028
  571POPE   C1A 7031  23.831   9.898   6.587  0.4228  0.1200  0.3314
  571POPE   D2A 7032  23.926   9.751   6.203  0.1897  0.2681 -0.0830
  571POPE   C3A 7033  23.786   9.455   5.863  0.2181  0.5815 -0.1452
  571POPE   C4A 7034  23.780   9.011   5.642  0.0820 -0.2227  0.1510
  571POPE   C1B 7035  23.755  10.622   6.984 -0.2800  0.3274  0.0657
  571POPE   C2B 7036  23.481  10.856   7.195  0.1251 -0.1235  0.0384
  571POPE   C3B 7037  23.393  11.298   7.142 -0.2404 -0.1425  0.2871
  571POPE   C4B 7038  23.163  11.775   7.166  0.0770  0.1564 -0.0006
  572POPE   NH3 7039  21.795   5.747   8.060 -0.2276 -0.0046 -0.0322
  572POPE   PO4 7040  22.049   5.541   7.885 -0.0424 -0.0020 -0.1255
  572POPE   GL1 7041  21.927   5.271   7.476 -0.1452  0.1665  0.0928
  572POPE   GL2 7042  21.854   5.573   7.348 -0.0277  0.1752 -0.3091
  572POPE   C1A 7043  21.830   4.968   7.319  0.0137  0.2231  0.0273
  572POPE   D2A 7044  21.574   4.609   7.019  0.2681 -0.2389 -0.1132
  572POPE   C3A 7045  21.879   4.493   6.610  0.2197 -0.0254  0.2216
  572POPE   C4A 7046  22.274   4.623   6.463 -0.1073  0.3496 -0.3782
  572POPE   C1B 7047  21.632   5.596   7.038  0.0613  0.2143  0.1758
  572POPE   C2B 7048  21.469   5.738   6.665  0.1510 -0.0849  0.0624
  572POPE   C3B 7049  21.446   5.643   6.174 -0.0344 -0.0230 -0.4032
  572POPE   C4B 7050  21.219   5.392   5.717  0.0886  0.0503 -0.1290
  573POPE   NH3 7051   8.282   8.413   7.135  0.0158  0.1064 -0.1202
  573POPE   PO4 7052   8.492   8.676   7.132  0.1401 -0.0260  0.2583
  573POPE   GL1 7053   8.296   8.745   6.801 -0.0505 -0.0381 -0.0147
  573POPE   GL2 7054   8.428   8.978   6.775  0.1224  0.2892  0.0222
  573POPE   C1A 7055   8.362   8.509   6.470  0.0406 -0.0688 -0.0863
  573POPE   D2A 7056   8.182   8.336   5.993 -0.0840 -0.1020  0.0561
  573POPE   C3A 7057   8.278   8.620   5.626 -0.2134 -0.1415  0.2284
  573POPE   C4A 7058   8.642   8.897   5.375  0.0692  0.3414  0.0679
  573POPE   C1B 7059   8.576   8.919   6.449  0.2602  0.1258 -0.1969
  573POPE   C2B 7060   8.563   9.254   6.151  0.2198  0.3113 -0.3565
  573POPE   C3B 7061   8.654   9.541   5.733  0.4078 -0.5716 -0.0623
  573POPE   C4B 7062   8.673   9.877   5.369  0.2101  0.3140 -0.0266
  574POPE   NH3 7063  12.679  16.650   7.767  0.3313  0.1148  0.0476
  574POPE   PO4 7064  12.528  16.350   7.803 -0.0331 -0.1008 -0.5452
  574POPE   GL1 7065  12.633  16.253   7.479  0.4617 -0.1885 -0.0507
  574POPE   GL2 7066  12.832  16.075   7.579 -0.1256  0.1627 -0.3349
  574POPE   C1A 7067  12.635  16.167   7.054  0.0804 -0.1043  0.0858
  574POPE   D2A 7068  12.790  16.084   6.552 -0.1146  0.2306  0.0756
  574POPE   C3A 7069  12.835  16.026   6.068 -0.1392  0.0402 -0.1931
  574POPE   C4A 7070  13.010  15.985   5.640  0.3020  0.4194 -0.0234
  574POPE   C1B 7071  12.907  15.876   7.306  0.1644 -0.6522 -0.0894
  574POPE   C2B 7072  12.961  15.728   6.889 -0.1147  0.1156  0.1225
  574POPE   C3B 7073  13.074  15.744   6.374 -0.3967  0.0411 -0.2433
  574POPE   C4B 7074  13.294  15.668   5.937  0.0839 -0.0774 -0.1939
  575POPE   NH3 7075  26.152   9.666   7.701 -0.0992 -0.1363  0.0200
  575POPE   PO4 7076  25.914   9.511   7.602  0.0674  0.1097 -0.0016
  575POPE   GL1 7077  25.732   9.568   7.225  0.4239  0.1156 -0.1316
  575POPE   GL2 7078  25.996   9.442   7.105 -0.3422  0.1534 -0.2653
  575POPE   C1A 7079  25.488   9.695   6.909 -0.0779  0.2332  0.1091
  575POPE   D2A 7080  25.372   9.665   6.444 -0.2366 -0.1695  0.0681
  575POPE   C3A 7081  25.484   9.858   6.059 -0.0171  0.3759 -0.3460
  575POPE   C4A 7082  25.574  10.335   5.941 -0.1817 -0.1008  0.0488
  575POPE   C1B 7083  26.043   9.284   6.799 -0.1565 -0.2240  0.2447
  575POPE   C2B 7084  26.050   9.106   6.465 -0.2776  0.1011  0.0280
  575POPE   C3B 7085  25.956   9.097   6.023 -0.1299  0.1451  0.1184
  575POPE   C4B 7086  25.855   9.077   5.510 -0.3097 -0.2045  0.1188
  576POPE   NH3 7087  24.196  19.429   7.444 -0.2833 -0.0151  0.0181
  576POPE   PO4 7088  24.279  19.101   7.583 -0.0275  0.2107 -0.1072
  576POPE   GL1 7089  24.369  18.799   7.232 -0.0527  0.2055 -0.1929
  576POPE   GL2 7090  24.401  18.503   7.361 -0.0846  0.1137  0.0696
  576POPE   C1A 7091  24.753  18.826   6.905 -0.1496 -0.1763  0.1488
  576POPE   D2A 7092  24.943  18.484   6.659  0.0975  0.1484  0.0836
  576POPE   C3A 7093  25.083  18.519   6.215  0.4048 -0.0997 -0.1085
  576POPE   C4A 7094  25.455  18.616   5.932  0.0806 -0.0906 -0.1499
  576POPE   C1B 7095  24.565  18.313   7.057  0.2125  0.2232  0.0752
  576POPE   C2B 7096  24.523  18.099   6.694 -0.2104 -0.1815 -0.2054
  576POPE   C3B 7097  24.624  17.938   6.222 -0.2376  0.0393  0.1288
  576POPE   C4B 7098  24.717  17.926   5.748 -0.0928 -0.1881 -0.4860
  577POPE   NH3 7099   4.806  10.045   7.129 -0.0059  0.1523 -0.3345
  577POPE   PO4 7100   5.108  10.214   7.204 -0.1509 -0.0379  0.4330
  577POPE   GL1 7101   5.043  10.327   6.843 -0.3806 -0.5501 -0.0905
  577POPE   GL2 7102   4.822  10.250   6.713  0.1309  0.4771 -0.0451
  577POPE   C1A 7103   5.133  10.636   6.518  0.4315  0.2442  0.0293
  577POPE   D2A 7104   5.341  10.749   6.060  0.1994  0.2693  0.0108
  577POPE   C3A 7105   5.309  11.044   5.722  0.0301  0.0990  0.0918
  577POPE   C4A 7106   5.650  10.763   5.448  0.1589  0.2836  0.2123
  577POPE   C1B 7107   4.846  10.363   6.330  0.0648 -0.1410  0.0267
  577POPE   C2B 7108   4.854  10.613   5.999 -0.0755  0.0543 -0.2036
  577POPE   C3B 7109   4.874  10.864   5.574  0.2301  0.0730 -0.3727
  577POPE   C4B 7110   5.041  11.152   5.243 -0.0268 -0.2698  0.1526
  578POPE   NH3 7111  22.963   9.271   7.551 -0.1347 -0.1576  0.0637
  578POPE   PO4 7112  23.152   9.545   7.434  0.0029  0.0025  0.0509
  578POPE   GL1 7113  23.362   9.623   7.068  0.1533  0.3702  0.0800
  578POPE   GL2 7114  23.700   9.614   7.091  0.0911  0.0000  0.3227
  578POPE   C1A 7115  23.450   9.580   6.608  0.0134  0.0881  0.1784
  578POPE   D2A 7116  23.614   9.232   6.226 -0.1429 -0.0257 -0.1652
  578POPE   C3A 7117  23.362   9.194   5.894  0.0631  0.0181 -0.1418
  578POPE   C4A 7118  23.226   8.963   5.501  0.2125  0.1322  0.0541
  578POPE   C1B 7119  23.903   9.467   6.827  0.2781 -0.1289  0.3226
  578POPE   C2B 7120  24.070   9.312   6.438 -0.0883 -0.0800  0.4161
  578POPE   C3B 7121  24.088   9.082   6.038 -0.0855 -0.0099  0.0600
  578POPE   C4B 7122  24.434   8.881   5.719  0.1272  0.2943 -0.0557
  579POPE   NH3 7123   5.887  19.633   7.530 -0.2718 -0.1419 -0.1155
  579POPE   PO4 7124   5.762  19.331   7.402  0.0777 -0.0592 -0.3913
  579POPE   GL1 7125   5.972  19.083   7.094 -0.0818 -0.3030  0.3748
  579POPE   GL2 7126   6.237  19.038   7.228 -0.2707 -0.1150 -0.1391
  579POPE   C1A 7127   5.878  19.203   6.653 -0.1029 -0.2411  0.4211
  579POPE   D2A 7128   5.931  19.337   6.212 -0.2345  0.3385 -0.0357
  579POPE   C3A 7129   6.084  19.510   5.821 -0.1192 -0.0479  0.0393
  579POPE   C4A 7130   6.316  19.632   5.409 -0.1037  0.2247 -0.0420
  579POPE   C1B 7131   6.439  19.035   6.940 -0.1211  0.4363  0.2703
  579POPE   C2B 7132   6.416  19.077   6.564  0.2332 -0.1149 -0.1743
  579POPE   C3B 7133   6.424  19.111   6.088  0.0687  0.0307  0.0144
  579POPE   C4B 7134   6.404  19.179   5.576  0.2882 -0.1434 -0.0399
  580POPE   NH3 7135   5.430  17.426   7.295  0.2124  0.2076 -0.1874
  580POPE   PO4 7136   5.081  17.523   7.387 -0.0957 -0.1240  0.0688
  580POPE   GL1 7137   5.017  17.590   6.969  0.2932  0.0593 -0.1882
  580POPE   GL2 7138   5.339  17.553   6.907  0.3899  0.1548  0.1364
  580POPE   C1A 7139   4.870  17.616   6.582  0.1283 -0.1027 -0.0415
  580POPE   D2A 7140   4.656  17.628   6.114 -0.0038 -0.1471  0.1159
  580POPE   C3A 7141   4.895  17.345   5.791  0.1441 -0.2320  0.0615
  580POPE   C4A 7142   4.835  17.303   5.315  0.0423 -0.3388 -0.2301
  580POPE   C1B 7143   5.279  17.578   6.522  0.0991 -0.1950  0.1300
  580POPE   C2B 7144   5.349  17.588   6.153  0.0520 -0.3844  0.4905
  580POPE   C3B 7145   5.574  17.565   5.725 -0.2500  0.2608 -0.2852
  580POPE   C4B 7146   5.836  17.603   5.268 -0.1562  0.5547 -0.2045
  581POPE   NH3 7147   3.190   1.260   7.854 -0.2078 -0.1014  0.0346
  581POPE   PO4 7148   3.008   1.565   7.999 -0.0572 -0.0676  0.3596
  581POPE   GL1 7149   2.841   1.627   7.578 -0.1057 -0.0716  0.1181
  581POPE   GL2 7150   3.099   1.571   7.523 -0.0928  0.1502  0.0585
  581POPE   C1A 7151   2.864   1.874   7.205  0.1809 -0.1390 -0.0108
  581POPE   D2A 7152   2.991   1.852   6.730  0.2954 -0.1606 -0.0112
  581POPE   C3A 7153   3.201   1.744   6.336 -0.1431  0.1240  0.1342
  581POPE   C4A 7154   3.612   1.751   6.067 -0.2349  0.0455  0.0653
  581POPE   C1B 7155   3.154   1.523   7.114  0.3032  0.1418 -0.0799
  581POPE   C2B 7156   3.358   1.501   6.775 -0.0073  0.2176 -0.2082
  581POPE   C3B 7157   3.679   1.462   6.445  0.1764 -0.0808  0.0303
  581POPE   C4B 7158   4.112   1.385   6.198  0.3152 -0.2287 -0.0388
  582POPE   NH3 7159  15.625  15.695   8.055  0.2709  0.0380 -0.0708
  582POPE   PO4 7160  15.810  15.827   7.821  0.2455 -0.0702 -0.0500
  582POPE   GL1 7161  15.578  15.762   7.582 -0.0202 -0.3662  0.2445
  582POPE   GL2 7162  15.418  16.019   7.454 -0.3737 -0.1645  0.2255
  582POPE   C1A 7163  15.648  15.499   7.203  0.1422  0.3350  0.0321
  582POPE   D2A 7164  15.644  15.374   6.742 -0.2751  0.1062  0.0304
  582POPE   C3A 7165  15.680  15.444   6.289 -0.1866  0.0067  0.2304
  582POPE   C4A 7166  15.871  15.201   5.934 -0.1638  0.0655  0.0819
  582POPE   C1B 7167  15.422  15.868   7.088  0.3015  0.1632 -0.0779
  582POPE   C2B 7168  15.484  15.914   6.652 -0.0952  0.2136  0.1904
  582POPE   C3B 7169  15.645  15.915   6.192  0.0054  0.0967  0.0475
  582POPE   C4B 7170  15.493  16.025   5.739  0.0426  0.2253  0.1399
  583POPE   NH3 7171  11.039  27.486   7.855  0.1020  0.1201 -0.4009
  583POPE   PO4 7172  11.267  27.627   7.693 -0.1697 -0.1605  0.0723
  583POPE   GL1 7173  11.197  27.394   7.358  0.1008 -0.0204 -0.2484
  583POPE   GL2 7174  11.478  27.423   7.280  0.0412 -0.2179 -0.2720
  583POPE   C1A 7175  11.149  27.482   6.946  0.0501 -0.2282  0.3148
  583POPE   D2A 7176  11.051  27.458   6.471 -0.2075 -0.0225 -0.1094
  583POPE   C3A 7177  11.334  27.308   6.124 -0.2713 -0.2121  0.1065
  583POPE   C4A 7178  11.774  27.608   5.883 -0.1278  0.6283  0.3142
  583POPE   C1B 7179  11.612  27.250   6.938 -0.1504  0.0813 -0.0022
  583POPE   C2B 7180  11.577  27.195   6.548 -0.0511 -0.0588  0.1450
  583POPE   C3B 7181  11.776  27.042   6.094  0.0169  0.1002  0.0950
  583POPE   C4B 7182  12.115  27.065   5.708  0.0469 -0.0036  0.1417
  584POPE   NH3 7183  14.696  19.877   8.029  0.0182 -0.1956 -0.0968
  584POPE   PO4 7184  14.547  19.761   7.767 -0.0421  0.0217 -0.0246
  584POPE   GL1 7185  14.509  19.812   7.312  0.2480 -0.3529 -0.3779
  584POPE   GL2 7186  14.681  20.024   7.339  0.1406 -0.1469 -0.0027
  584POPE   C1A 7187  14.265  19.876   6.931  0.2906  0.1531 -0.0571
  584POPE   D2A 7188  14.102  20.168   6.515 -0.0841 -0.0612 -0.0522
  584POPE   C3A 7189  14.433  20.183   6.214 -0.2767 -0.0472  0.1827
  584POPE   C4A 7190  14.770  20.367   5.863  0.1460  0.1481  0.0265
  584POPE   C1B 7191  14.834  20.321   7.109  0.2546 -0.1697 -0.0203
  584POPE   C2B 7192  14.812  20.483   6.691  0.1435 -0.1189 -0.1167
  584POPE   C3B 7193  15.005  20.684   6.280  0.1290  0.1675  0.0133
  584POPE   C4B 7194  15.077  21.153   5.973  0.5145 -0.1393 -0.0230
  585POPE   NH3 7195  26.630  21.825   7.413 -0.0619 -0.1720 -0.2019
  585POPE   PO4 7196  26.982  21.828   7.484  0.2192 -0.3316 -0.0927
  585POPE   GL1 7197  26.981  21.762   7.006 -0.1615  0.0573 -0.0404
  585POPE   GL2 7198  26.876  22.071   6.933 -0.2248 -0.0754  0.1514
  585POPE   C1A 7199  26.908  21.411   6.693 -0.3096  0.1484  0.0159
  585POPE   D2A 7200  26.812  21.334   6.236  0.0540 -0.0256  0.1616
  585POPE   C3A 7201  26.963  21.314   5.802 -0.1051  0.1392 -0.2457
  585POPE   C4A 7202  26.799  21.352   5.306  0.2279 -0.1737  0.0757
  585POPE   C1B 7203  27.030  22.247   6.613 -0.0511  0.4237 -0.0653
  585POPE   C2B 7204  27.033  22.223   6.221 -0.1260  0.1518 -0.1501
  585POPE   C3B 7205  26.951  22.387   5.789 -0.1492  0.0900  0.2072
  585POPE   C4B 7206  26.475  22.519   5.552  0.1586  0.0405 -0.1600
  586POPE   NH3 7207  11.335  17.128   7.976  0.0082 -0.0283  0.0007
  586POPE   PO4 7208  11.110  16.897   7.837 -0.0851 -0.1153  0.3757
  586POPE   GL1 7209  11.258  16.743   7.568 -0.1933 -0.1367 -0.1742
  586POPE   GL2 7210  11.051  16.943   7.391 -0.1555 -0.4705  0.0733
  586POPE   C1A 7211  11.478  16.819   7.266  0.3262 -0.1942  0.1894
  586POPE   D2A 7212  11.410  17.181   6.943  0.0607  0.1064  0.2554
  586POPE   C3A 7213  11.439  17.248   6.464  0.2090 -0.1553 -0.2180
  586POPE   C4A 7214  11.525  17.239   5.983 -0.0976  0.1206  0.1222
  586POPE   C1B 7215  11.084  16.882   7.033  0.2865 -0.1077  0.0618
  586POPE   C2B 7216  11.036  17.011   6.652 -0.1019 -0.1068 -0.3487
  586POPE   C3B 7217  11.046  17.082   6.181  0.0811 -0.2349  0.0775
  586POPE   C4B 7218  11.078  17.246   5.707 -0.2728  0.1070  0.2337
  587POPE   NH3 7219  18.110  16.164   8.023 -0.0048 -0.0532  0.0540
  587POPE   PO4 7220  17.904  15.923   7.810 -0.3288 -0.0169 -0.1390
  587POPE   GL1 7221  17.878  15.813   7.393  0.0364  0.0425  0.0162
  587POPE   GL2 7222  17.979  16.097   7.280 -0.2629 -0.1742  0.2401
  587POPE   C1A 7223  17.748  15.619   7.016  0.4224  0.0625 -0.0681
  587POPE   D2A 7224  17.746  15.590   6.522 -0.0413 -0.2403 -0.1054
  587POPE   C3A 7225  17.447  15.639   6.146  0.1458 -0.1999 -0.2387
  587POPE   C4A 7226  17.193  15.288   5.824  0.0158  0.1676  0.2481
  587POPE   C1B 7227  17.755  16.061   6.979  0.1126 -0.1545  0.0938
  587POPE   C2B 7228  17.648  16.081   6.580  0.2525  0.0208 -0.0559
  587POPE   C3B 7229  17.395  16.281   6.233  0.0444  0.3483  0.0611
  587POPE   C4B 7230  17.121  16.502   5.930 -0.0130 -0.1484  0.1808
  588POPE   NH3 7231  16.719   8.456   6.955 -0.2285 -0.2662 -0.1805
  588POPE   PO4 7232  16.601   8.780   7.059  0.1325 -0.0815  0.2592
  588POPE   GL1 7233  16.646   8.787   6.624  0.2237  0.0740  0.0063
  588POPE   GL2 7234  16.370   8.698   6.554  0.1766 -0.1105  0.3991
  588POPE   C1A 7235  16.779   8.734   6.148 -0.2221  0.1997 -0.1283
  588POPE   D2A 7236  16.910   8.973   5.713  0.1026  0.0317  0.0816
  588POPE   C3A 7237  16.722   8.770   5.313 -0.1878 -0.0582  0.0238
  588POPE   C4A 7238  16.830   8.666   4.836  0.0708 -0.1185  0.1157
  588POPE   C1B 7239  16.269   8.823   6.216  0.3094 -0.2795 -0.0323
  588POPE   C2B 7240  16.283   9.138   5.958 -0.2454 -0.1001 -0.2045
  588POPE   C3B 7241  16.284   9.563   5.811  0.1481  0.1225  0.0929
  588POPE   C4B 7242  16.424   9.973   5.516 -0.1843  0.1156 -0.0892
  589POPE   NH3 7243  23.989  18.109   7.991 -0.0385  0.2015  0.1273
  589POPE   PO4 7244  24.010  17.847   7.803  0.1730 -0.0037 -0.0157
  589POPE   GL1 7245  23.822  18.121   7.443  0.0160 -0.2553 -0.2980
  589POPE   GL2 7246  23.659  17.904   7.432  0.1486  0.1774  0.0025
  589POPE   C1A 7247  24.103  18.204   7.128  0.0087 -0.0581  0.1098
  589POPE   D2A 7248  24.267  18.527   6.746  0.0182 -0.0751  0.1634
  589POPE   C3A 7249  24.508  18.477   6.324 -0.0161  0.0073 -0.1748
  589POPE   C4A 7250  24.546  18.773   5.913 -0.3401  0.1025  0.2461
  589POPE   C1B 7251  23.546  17.871   7.078 -0.0960  0.1844 -0.0563
  589POPE   C2B 7252  23.691  18.085   6.790  0.2706 -0.1706 -0.4601
  589POPE   C3B 7253  23.810  18.390   6.375  0.1256  0.0233 -0.0594
  589POPE   C4B 7254  24.056  18.716   6.031 -0.3886 -0.1631 -0.2770
  590POPE   NH3 7255  17.426   8.230   7.311  0.2545 -0.0377 -0.0557
  590POPE   PO4 7256  17.135   8.430   7.150 -0.0335 -0.0097  0.1600
  590POPE   GL1 7257  17.227   8.397   6.668 -0.1427 -0.2378 -0.0089
  590POPE   GL2 7258  17.044   8.646   6.735 -0.0412 -0.0208 -0.0555
  590POPE   C1A 7259  17.167   8.402   6.241  0.2827  0.2536  0.2844
  590POPE   D2A 7260  17.153   8.566   5.765  0.1017  0.3226  0.0256
  590POPE   C3A 7261  16.950   8.291   5.514  0.1312  0.2406  0.2023
  590POPE   C4A 7262  16.935   8.209   4.990 -0.0482 -0.2540  0.2715
  590POPE   C1B 7263  17.012   8.947   6.523 -0.5626  0.5900 -0.1690
  590POPE   C2B 7264  17.124   9.176   6.254  0.4911 -0.2037 -0.4720
  590POPE   C3B 7265  17.238   9.377   5.796  0.1268 -0.1673 -0.4491
  590POPE   C4B 7266  17.421   9.454   5.395  0.0605  0.4402  0.0707
  591DLPE   NH3 7267  15.092  17.234   8.091  0.0475 -0.2887 -0.1429
  591DLPE   PO4 7268  14.813  17.389   7.922 -0.0771 -0.5351 -0.1659
  591DLPE   GL1 7269  14.840  17.341   7.456  0.1668 -0.5567 -0.1605
  591DLPE   GL2 7270  14.891  17.647   7.426  0.1060 -0.0179  0.0744
  591DLPE   C1A 7271  15.032  17.121   7.073  0.1659 -0.0238  0.4179
  591DLPE   D2A 7272  15.094  17.161   6.550 -0.1719 -0.2063  0.1775
  591DLPE   D3A 7273  15.006  17.549   6.429  0.0402  0.2852 -0.1596
  591DLPE   C4A 7274  15.286  17.875   6.712 -0.2077 -0.1610 -0.1184
  591DLPE   C1B 7275  14.914  17.604   7.062 -0.1207 -0.0547  0.0242
  591DLPE   D2B 7276  14.676  17.826   6.741 -0.0977 -0.1317 -0.1889
  591DLPE   D3B 7277  14.646  17.939   6.337 -0.2067  0.0231  0.0865
  591DLPE   C4B 7278  14.977  18.076   6.100 -0.0270  0.0099 -0.0221
  592DLPE   NH3 7279  12.343  27.302   7.799  0.1305 -0.1976 -0.0560
  592DLPE   PO4 7280  12.604  27.418   8.019 -0.1136 -0.0106 -0.1162
  592DLPE   GL1 7281  12.888  27.389   7.725  0.1614  0.1175 -0.2245
  592DLPE   GL2 7282  12.685  27.103   7.557 -0.1713 -0.0303 -0.3736
  592DLPE   C1A 7283  12.962  27.568   7.416  0.1498  0.0163 -0.1414
  592DLPE   D2A 7284  13.076  27.878   7.021 -0.4887 -0.1037 -0.0547
  592DLPE   D3A 7285  12.970  27.882   6.614 -0.0583 -0.1756 -0.0622
  592DLPE   C4A 7286  12.787  27.803   6.219  0.0149  0.0970  0.1579
  592DLPE   C1B 7287  12.909  27.172   7.133 -0.2946 -0.2534  0.1259
  592DLPE   D2B 7288  12.822  27.011   6.701 -0.3987  0.0627 -0.1259
  592DLPE   D3B 7289  12.455  26.888   6.488 -0.3048 -0.3442 -0.0887
  592DLPE   C4B 7290  12.911  26.845   6.195 -0.0205 -0.0756  0.2652
  593DLPE   NH3 7291  13.836  11.478   8.025  0.0435  0.1066 -0.2369
  593DLPE   PO4 7292  14.063  11.393   7.815  0.0436 -0.2294  0.1490
  593DLPE   GL1 7293  13.841  11.408   7.406  0.0855 -0.0303 -0.0878
  593DLPE   GL2 7294  14.112  11.254   7.324 -0.0517 -0.0033 -0.2792
  593DLPE   C1A 7295  13.468  11.432   7.161  0.1274 -0.1171  0.3225
  593DLPE   D2A 7296  13.293  11.247   6.759 -0.2853 -0.1107 -0.2277
  593DLPE   D3A 7297  13.479  11.077   6.424  0.0016  0.0381 -0.2668
  593DLPE   C4A 7298  13.499  11.102   5.961  0.0644 -0.1592 -0.0621
  593DLPE   C1B 7299  13.781  11.075   7.114  0.0076  0.1680 -0.1782
  593DLPE   D2B 7300  13.560  10.778   6.773  0.5672 -0.1670 -0.0398
  593DLPE   D3B 7301  13.290  10.491   6.554 -0.1890 -0.1101 -0.0852
  593DLPE   C4B 7302  13.524  10.490   6.160 -0.2536  0.1156 -0.1954
  594DLPE   NH3 7303   7.448  10.088   7.638  0.1991  0.1608  0.2846
  594DLPE   PO4 7304   7.752  10.172   7.535 -0.0750  0.0511 -0.0797
  594DLPE   GL1 7305   7.754   9.974   7.081  0.2117 -0.4377  0.0686
  594DLPE   GL2 7306   7.541   9.915   7.135 -0.0605 -0.1668 -0.0289
  594DLPE   C1A 7307   8.027  10.021   6.745  0.1590 -0.3224  0.2062
  594DLPE   D2A 7308   8.312   9.736   6.452 -0.3024 -0.1913  0.1554
  594DLPE   D3A 7309   8.285   9.720   6.000 -0.1240  0.0924 -0.1433
  594DLPE   C4A 7310   8.184   9.261   5.753  0.2551  0.1846  0.1070
  594DLPE   C1B 7311   7.348   9.920   6.730  0.0660  0.0374  0.2561
  594DLPE   D2B 7312   7.007  10.056   6.405  0.0901 -0.2211 -0.3861
  594DLPE   D3B 7313   6.747   9.960   6.083 -0.0969 -0.1005 -0.0528
  594DLPE   C4B 7314   6.533  10.189   5.736  0.2120 -0.0563 -0.5144
  595DLPE   NH3 7315   7.123  22.244   7.959  0.1044 -0.0784  0.1028
  595DLPE   PO4 7316   7.353  21.967   7.935  0.3025 -0.1481  0.0822
  595DLPE   GL1 7317   7.617  22.082   7.612  0.4926  0.1295 -0.2209
  595DLPE   GL2 7318   7.674  22.354   7.589  0.1384  0.0212 -0.0952
  595DLPE   C1A 7319   7.605  21.968   7.229  0.2122 -0.0165  0.1499
  595DLPE   D2A 7320   7.485  21.868   6.770 -0.3727  0.6504  0.3810
  595DLPE   D3A 7321   7.353  22.117   6.430  0.1627  0.0940 -0.3199
  595DLPE   C4A 7322   6.961  21.889   6.589  0.0738 -0.0073 -0.0573
  595DLPE   C1B 7323   7.698  22.553   7.225  0.2240 -0.2033 -0.0869
  595DLPE   D2B 7324   7.700  23.103   7.194 -0.2234 -0.2644  0.0419
  595DLPE   D3B 7325   7.745  23.309   6.742  0.0766 -0.1413  0.1164
  595DLPE   C4B 7326   7.544  23.417   6.315  0.0951  0.1259 -0.0336
  596DLPE   NH3 7327   1.619   2.688   7.540 -0.1721 -0.0986  0.0611
  596DLPE   PO4 7328   1.565   2.938   7.775  0.0578 -0.3776 -0.1410
  596DLPE   GL1 7329   1.648   3.145   7.456  0.0661 -0.1297 -0.0402
  596DLPE   GL2 7330   1.868   2.990   7.311 -0.1332  0.3957 -0.0955
  596DLPE   C1A 7331   1.397   3.148   7.123 -0.1258 -0.3056  0.1859
  596DLPE   D2A 7332   1.103   2.837   6.897  0.2509 -0.1402 -0.1838
  596DLPE   D3A 7333   1.249   2.705   6.600  0.7357  0.2994 -0.1520
  596DLPE   C4A 7334   1.323   2.266   6.608 -0.1460 -0.0027  0.1378
  596DLPE   C1B 7335   1.750   2.960   6.840 -0.0521 -0.2485 -0.2426
  596DLPE   D2B 7336   1.700   3.014   6.358  0.3177  0.0574  0.1876
  596DLPE   D3B 7337   1.712   3.161   5.913  0.2710  0.0703  0.1327
  596DLPE   C4B 7338   1.430   3.118   5.635 -0.1580  0.2161  0.1271
  597DLPE   NH3 7339   6.217  22.037   7.728  0.5812  0.1109 -0.3129
  597DLPE   PO4 7340   5.887  22.126   7.826  0.1444  0.1434 -0.1014
  597DLPE   GL1 7341   5.721  21.959   7.542  0.2693  0.2459 -0.0608
  597DLPE   GL2 7342   5.573  22.102   7.439  0.0101 -0.1198 -0.2247
  597DLPE   C1A 7343   5.978  21.869   7.252 -0.1492 -0.0705  0.0494
  597DLPE   D2A 7344   6.135  21.451   7.035 -0.2232 -0.0931 -0.0398
  597DLPE   D3A 7345   5.962  21.572   6.567 -0.1014  0.2736 -0.1765
  597DLPE   C4A 7346   5.640  21.723   6.235  0.1108  0.3727 -0.1798
  597DLPE   C1B 7347   5.716  22.313   7.053  0.0723  0.1162 -0.1926
  597DLPE   D2B 7348   5.904  22.369   6.577 -0.1395 -0.0676 -0.1135
  597DLPE   D3B 7349   6.128  22.067   6.303 -0.1734  0.1999  0.2690
  597DLPE   C4B 7350   6.576  22.146   6.226 -0.0693  0.3319 -0.0972
  598DLPE   NH3 7351   2.319  16.809   7.944 -0.3819 -0.0156 -0.0412
  598DLPE   PO4 7352   2.090  16.694   7.726  0.2983 -0.1591  0.0426
  598DLPE   GL1 7353   1.950  16.860   7.370 -0.2410 -0.3018  0.0294
  598DLPE   GL2 7354   1.686  16.706   7.321 -0.0937 -0.0416  0.0546
  598DLPE   C1A 7355   1.898  17.122   7.019  0.1680  0.0255  0.0972
  598DLPE   D2A 7356   1.839  17.271   6.492 -0.2753 -0.1605 -0.3497
  598DLPE   D3A 7357   2.073  17.225   6.170 -0.0425  0.1276 -0.2002
  598DLPE   C4A 7358   2.542  17.258   6.108 -0.1122 -0.1826 -0.0339
  598DLPE   C1B 7359   1.525  16.687   6.877 -0.1164 -0.0745 -0.0585
  598DLPE   D2B 7360   1.079  16.841   6.729  0.1618 -0.0436  0.2409
  598DLPE   D3B 7361   1.010  16.400   6.558  0.4135 -0.0869  0.0348
  598DLPE   C4B 7362   0.787  16.284   6.172  0.0365  0.0662  0.0994
  599DLPE   NH3 7363   4.199  11.213   7.579  0.0984 -0.3491  0.1007
  599DLPE   PO4 7364   4.427  11.043   7.395  0.1530 -0.0760 -0.1165
  599DLPE   GL1 7365   4.359  11.203   7.078  0.4125 -0.2275  0.0181
  599DLPE   GL2 7366   4.101  11.286   7.093 -0.4449 -0.1749  0.0363
  599DLPE   C1A 7367   4.618  11.309   6.660 -0.2524  0.1296 -0.3307
  599DLPE   D2A 7368   5.099  11.204   6.672 -0.2799 -0.0144 -0.0726
  599DLPE   D3A 7369   5.203  11.260   6.266 -0.2401  0.2821  0.0408
  599DLPE   C4A 7370   4.821  10.963   6.335  0.0945 -0.1101  0.1182
  599DLPE   C1B 7371   3.907  11.174   6.763  0.3819  0.1207 -0.0759
  599DLPE   D2B 7372   3.456  11.096   6.516 -0.4313 -0.0428  0.2693
  599DLPE   D3B 7373   3.487  11.252   6.055  0.0114  0.0854 -0.0175
  599DLPE   C4B 7374   3.367  10.966   5.671 -0.1588 -0.2447 -0.1648
  600DLPE   NH3 7375   8.381   9.133   7.378 -0.2550 -0.2247 -0.0610
  600DLPE   PO4 7376   8.333   9.449   7.510 -0.1588 -0.4185 -0.1361
  600DLPE   GL1 7377   8.284   9.538   7.122 -0.1387 -0.3573  0.2065
  600DLPE   GL2 7378   8.067   9.371   7.075 -0.2682 -0.2232 -0.1376
  600DLPE   C1A 7379   8.574   9.429   6.770 -0.0558 -0.0497 -0.0464
  600DLPE   D2A 7380   8.796   9.642   6.345  0.2224 -0.0617  0.0122
  600DLPE   D3A 7381   9.032   9.724   5.977  0.2027 -0.1282 -0.2841
  600DLPE   C4A 7382   9.139   9.769   5.505 -0.0939 -0.1182  0.0350
  600DLPE   C1B 7383   8.015   9.158   6.697  0.0756 -0.3125  0.0512
  600DLPE   D2B 7384   8.045   9.276   6.226  0.2629  0.2436 -0.1374
  600DLPE   D3B 7385   8.257   8.862   6.058  0.0891  0.2391 -0.2407
  600DLPE   C4B 7386   8.668   8.567   5.986 -0.0826 -0.0878 -0.3714
  601DLPE   NH3 7387  18.418  20.966   7.961  0.0548 -0.1646  0.2775
  601DLPE   PO4 7388  18.111  21.172   7.972 -0.2118  0.0836 -0.2160
  601DLPE   GL1 7389  18.067  21.295   7.563  0.2168  0.2925  0.1299
  601DLPE   GL2 7390  18.108  20.995   7.514  0.1299  0.2067 -0.0094
  601DLPE   C1A 7391  18.180  21.636   7.340 -0.1379 -0.1564  0.2374
  601DLPE   D2A 7392  18.430  21.695   6.845 -0.0726 -0.0405 -0.2331
  601DLPE   D3A 7393  18.700  22.034   6.848 -0.1819 -0.3156 -0.3031
  601DLPE   C4A 7394  18.463  22.013   6.380 -0.3146 -0.2829  0.0243
  601DLPE   C1B 7395  18.344  21.089   7.109  0.1980  0.0442  0.0814
  601DLPE   D2B 7396  18.556  21.090   6.670 -0.0074 -0.1522  0.2477
  601DLPE   D3B 7397  18.612  21.071   6.205  0.0109  0.4099 -0.0679
  601DLPE   C4B 7398  18.833  21.087   5.801  0.1341  0.0960  0.1342
  602DLPE   NH3 7399   1.113  18.446   8.067 -0.2562  0.0417 -0.3608
  602DLPE   PO4 7400   0.881  18.656   7.849 -0.0815  0.0876 -0.0884
  602DLPE   GL1 7401   0.879  18.726   7.447 -0.1182  0.0290  0.1989
  602DLPE   GL2 7402   1.153  18.687   7.338  0.3502 -0.1655 -0.2158
  602DLPE   C1A 7403   0.750  19.005   7.123  0.0790 -0.1108  0.0258
  602DLPE   D2A 7404   0.521  19.421   6.879 -0.1312  0.0850 -0.0799
  602DLPE   D3A 7405   0.553  19.610   6.470 -0.0440 -0.0524  0.1243
  602DLPE   C4A 7406   0.799  19.325   6.158  0.4786  0.1609  0.1185
  602DLPE   C1B 7407   1.287  19.040   7.054 -0.0689 -0.3690  0.1588
  602DLPE   D2B 7408   1.582  19.442   7.051 -0.1990  0.1387 -0.1256
  602DLPE   D3B 7409   1.793  19.855   6.990 -0.1935 -0.2113  0.2245
  602DLPE   C4B 7410   1.806  20.016   6.584  0.0559  0.1690 -0.0782
  603DLPE   NH3 7411  22.335  20.742   7.482  0.1868  0.1888 -0.2457
  603DLPE   PO4 7412  22.014  20.624   7.315  0.3068 -0.0675 -0.0161
  603DLPE   GL1 7413  22.033  20.758   6.875  0.3734  0.1459 -0.1920
  603DLPE   GL2 7414  22.275  20.895   7.027  0.3519 -0.2143 -0.3384
  603DLPE   C1A 7415  21.663  20.946   6.655  0.0530 -0.1192  0.0681
  603DLPE   D2A 7416  21.803  20.867   6.191 -0.1516  0.2685 -0.1031
  603DLPE   D3A 7417  22.108  21.123   5.980 -0.2618  0.1273  0.2823
  603DLPE   C4A 7418  22.447  21.123   5.663  0.0615 -0.0554 -0.1123
  603DLPE   C1B 7419  22.453  21.093   6.648 -0.0167  0.1290 -0.2293
  603DLPE   D2B 7420  22.377  21.462   6.367 -0.0915 -0.0815 -0.1926
  603DLPE   D3B 7421  22.751  21.642   6.380  0.0433 -0.2023 -0.1864
  603DLPE   C4B 7422  22.549  21.625   5.954 -0.0542 -0.0150  0.2934
  604DLPE   NH3 7423   9.471  10.401   7.622  0.1427 -0.0956  0.1205
  604DLPE   PO4 7424   9.634  10.057   7.613  0.1568 -0.2512  0.0344
  604DLPE   GL1 7425   9.544  10.102   7.210  0.0277 -0.3768 -0.0584
  604DLPE   GL2 7426   9.558   9.767   7.150 -0.0351 -0.0468 -0.0132
  604DLPE   C1A 7427   9.787  10.250   6.873 -0.1155  0.0016  0.0457
  604DLPE   D2A 7428   9.868  10.722   6.756 -0.0133 -0.3716 -0.0901
  604DLPE   D3A 7429   9.824  10.888   6.340  0.0082 -0.1094 -0.1517
  604DLPE   C4A 7430   9.530  10.659   5.980 -0.1331 -0.2353 -0.2505
  604DLPE   C1B 7431   9.916   9.578   6.967  0.2644 -0.0107  0.2080
  604DLPE   D2B 7432  10.107   9.608   6.563 -0.1826 -0.0495  0.1054
  604DLPE   D3B 7433  10.383   9.526   6.205  0.1034  0.0409  0.1180
  604DLPE   C4B 7434  10.501   9.588   5.765  0.0045  0.2769 -0.1580
  605DLPE   NH3 7435   9.080   8.032   7.369  0.2703 -0.1695  0.1845
  605DLPE   PO4 7436   8.754   8.115   7.219 -0.3079  0.0030 -0.0970
  605DLPE   GL1 7437   8.685   8.345   6.820 -0.0459 -0.5916 -0.0639
  605DLPE   GL2 7438   8.642   8.054   6.761 -0.1071 -0.0165  0.1815
  605DLPE   C1A 7439   8.821   8.437   6.457 -0.2264  0.3595  0.1740
  605DLPE   D2A 7440   9.133   8.299   6.003  0.1753  0.3306 -0.2929
  605DLPE   D3A 7441   9.272   8.218   5.623  0.0084  0.0413 -0.1644
  605DLPE   C4A 7442   9.228   7.830   5.372  0.0962  0.0472  0.2197
  605DLPE   C1B 7443   8.942   7.953   6.490  0.0209  0.2879  0.0576
  605DLPE   D2B 7444   9.260   7.751   6.128 -0.0016 -0.2163 -0.1509
  605DLPE   D3B 7445   8.951   7.616   5.789  0.3140  0.1190  0.1690
  605DLPE   C4B 7446   9.132   7.208   5.537 -0.0540  0.1096 -0.2112
  606DLPE   NH3 7447  22.617  20.047   7.755  0.0485 -0.0929  0.1490
  606DLPE   PO4 7448  22.347  20.204   7.569 -0.1805 -0.1294 -0.0946
  606DLPE   GL1 7449  22.296  20.285   7.179  0.0782 -0.0240 -0.2207
  606DLPE   GL2 7450  22.499  20.496   7.139  0.4020 -0.1661  0.0617
  606DLPE   C1A 7451  22.043  20.293   6.746  0.3682 -0.1065 -0.0332
  606DLPE   D2A 7452  22.167  20.372   6.245  0.2528 -0.1962  0.2109
  606DLPE   D3A 7453  22.232  20.305   5.820 -0.1264  0.1025  0.0359
  606DLPE   C4A 7454  22.126  20.755   5.634 -0.1302  0.0682  0.1480
  606DLPE   C1B 7455  22.428  20.545   6.728  0.1028  0.0633 -0.2282
  606DLPE   D2B 7456  22.811  20.707   6.438 -0.0627 -0.0242  0.1810
  606DLPE   D3B 7457  23.229  20.807   6.428  0.0676 -0.1897  0.0207
  606DLPE   C4B 7458  23.327  21.184   6.120 -0.2491 -0.4543 -0.5255
  607DLPE   NH3 7459  22.587  21.616   7.657  0.1727  0.0447 -0.0424
  607DLPE   PO4 7460  22.508  21.944   7.536 -0.0392  0.3225  0.0715
  607DLPE   GL1 7461  22.437  21.831   7.165 -0.1301  0.5095  0.0163
  607DLPE   GL2 7462  22.252  21.969   7.095  0.0813 -0.0402 -0.1703
  607DLPE   C1A 7463  22.695  21.579   6.914  0.0277  0.1675  0.1162
  607DLPE   D2A 7464  23.083  21.220   6.702 -0.1913  0.0784 -0.0256
  607DLPE   D3A 7465  22.851  21.168   6.290 -0.0655 -0.1890 -0.2745
  607DLPE   C4A 7466  22.879  21.024   5.909 -0.2273 -0.0233  0.0742
  607DLPE   C1B 7467  22.265  22.273   6.901 -0.1408  0.1616  0.4934
  607DLPE   D2B 7468  22.441  22.731   6.837  0.1026 -0.3512 -0.1005
  607DLPE   D3B 7469  22.512  22.980   6.456 -0.0671 -0.0968  0.2706
  607DLPE   C4B 7470  22.435  23.436   6.521 -0.2977 -0.3469 -0.2282
  608DLPE   NH3 7471   8.972  10.557   7.585 -0.2715  0.4183  0.3103
  608DLPE   PO4 7472   9.126  10.838   7.714 -0.0553  0.2674  0.0352
  608DLPE   GL1 7473   9.156  10.895   7.315 -0.2447  0.3384  0.0876
  608DLPE   GL2 7474   8.888  10.962   7.186  0.0829  0.1780  0.1659
  608DLPE   C1A 7475   9.367  10.981   6.931 -0.0182 -0.1847  0.1867
  608DLPE   D2A 7476   9.396  11.138   6.476  0.1210 -0.1279 -0.2850
  608DLPE   D3A 7477   9.335  11.100   6.004  0.0293 -0.0011  0.3143
  608DLPE   C4A 7478   9.255  11.316   5.630 -0.1503 -0.2184  0.0362
  608DLPE   C1B 7479   8.815  11.005   6.714 -0.0605 -0.2598 -0.0145
  608DLPE   D2B 7480   8.853  11.064   6.252  0.3233 -0.0825  0.0679
  608DLPE   D3B 7481   8.769  11.286   5.810 -0.0514 -0.0228  0.2658
  608DLPE   C4B 7482   8.767  10.967   5.417  0.2152  0.2660  0.0466
  609DLPE   NH3 7483  17.217  14.968   7.790  0.0005 -0.0224  0.0910
  609DLPE   PO4 7484  17.524  15.044   7.686 -0.2068 -0.1228  0.1486
  609DLPE   GL1 7485  17.631  14.900   7.262 -0.1669 -0.2194  0.2043
  609DLPE   GL2 7486  17.530  15.220   7.279 -0.2285 -0.3532  0.0468
  609DLPE   C1A 7487  17.872  15.119   6.998  0.0372 -0.0849 -0.1383
  609DLPE   D2A 7488  18.241  15.393   6.872  0.2749  0.1493 -0.0070
  609DLPE   D3A 7489  18.481  15.642   6.558  0.1042  0.0518 -0.1709
  609DLPE   C4A 7490  18.769  15.470   6.790  0.0850  0.0787 -0.3916
  609DLPE   C1B 7491  17.411  15.327   6.864  0.2764 -0.0711 -0.0641
  609DLPE   D2B 7492  17.130  15.278   6.512 -0.1550  0.0888  0.3559
  609DLPE   D3B 7493  17.599  15.143   6.394  0.2462 -0.2011  0.3447
  609DLPE   C4B 7494  17.681  15.189   5.939  0.0041 -0.1019  0.2060
  610DLPE   NH3 7495  15.134   2.505   8.522 -0.1294 -0.0790 -0.0450
  610DLPE   PO4 7496  15.377   2.259   8.433  0.0134  0.1914  0.0544
  610DLPE   GL1 7497  15.406   2.190   8.028 -0.2205  0.0046 -0.2776
  610DLPE   GL2 7498  15.076   2.168   8.024  0.3655 -0.0343  0.0363
  610DLPE   C1A 7499  15.607   2.379   7.730 -0.0339  0.0311 -0.1371
  610DLPE   D2A 7500  15.750   2.839   7.763  0.1029  0.0618  0.0318
  610DLPE   D3A 7501  15.770   2.826   7.284  0.1140  0.1128 -0.1134
  610DLPE   C4A 7502  15.387   2.565   7.260 -0.2266  0.0972 -0.4940
  610DLPE   C1B 7503  15.033   2.444   7.639 -0.0239 -0.0714 -0.0171
  610DLPE   D2B 7504  14.857   2.896   7.418 -0.2252  0.0134 -0.0724
  610DLPE   D3B 7505  15.190   2.963   7.034  0.0132 -0.2861 -0.3607
  610DLPE   C4B 7506  15.516   2.737   6.802 -0.1355  0.1115 -0.0647
  611DLPE   NH3 7507  18.496   5.814   7.153 -0.0203 -0.0109  0.0807
  611DLPE   PO4 7508  18.306   5.750   6.902  0.3861  0.2832 -0.0229
  611DLPE   GL1 7509  18.332   5.461   6.536 -0.1594 -0.0809 -0.1552
  611DLPE   GL2 7510  18.637   5.501   6.530  0.2498 -0.0943 -0.2933
  611DLPE   C1A 7511  18.078   5.160   6.419  0.2331 -0.0084 -0.0579
  611DLPE   D2A 7512  17.661   5.125   6.687 -0.1850  0.3265  0.0403
  611DLPE   D3A 7513  17.760   4.820   6.383 -0.2325  0.0914 -0.0389
  611DLPE   C4A 7514  17.894   4.408   6.351 -0.2633 -0.0419  0.2196
  611DLPE   C1B 7515  18.910   5.383   6.241 -0.1762  0.0579  0.0261
  611DLPE   D2B 7516  19.055   5.254   5.803 -0.0619  0.1713  0.2678
  611DLPE   D3B 7517  19.463   5.262   5.639  0.1127 -0.2774  0.3118
  611DLPE   C4B 7518  19.255   5.411   5.294  0.2006  0.0982  0.1615
  612DLPE   NH3 7519   8.098   6.853   7.536 -0.1532  0.1375 -0.0609
  612DLPE   PO4 7520   8.272   6.991   7.264  0.0010  0.2570  0.0284
  612DLPE   GL1 7521   8.211   6.861   6.887  0.2976 -0.1390 -0.0323
  612DLPE   GL2 7522   8.300   7.200   6.788  0.2598  0.1043  0.0014
  612DLPE   C1A 7523   8.039   6.508   6.611 -0.0360 -0.0424 -0.1801
  612DLPE   D2A 7524   8.321   6.168   6.358 -0.1421  0.3594 -0.0304
  612DLPE   D3A 7525   8.555   6.303   6.001 -0.0937 -0.0419 -0.2406
  612DLPE   C4A 7526   8.885   6.121   5.710 -0.3382  0.0362 -0.3773
  612DLPE   C1B 7527   8.207   6.945   6.411  0.3256 -0.4142 -0.0434
  612DLPE   D2B 7528   8.175   6.585   6.044 -0.0926  0.3203 -0.0225
  612DLPE   D3B 7529   8.440   6.669   5.661  0.0772  0.1329 -0.1196
  612DLPE   C4B 7530   8.701   6.390   5.370  0.1963  0.2740  0.1275
  613DLPE   NH3 7531  26.110  10.770   7.781 -0.1085 -0.3135 -0.2618
  613DLPE   PO4 7532  25.913  11.011   7.861  0.0783 -0.0631  0.1505
  613DLPE   GL1 7533  26.167  11.188   7.470  0.0190 -0.1969  0.2662
  613DLPE   GL2 7534  26.377  11.145   7.617  0.0603  0.2137  0.0408
  613DLPE   C1A 7535  26.039  11.122   7.058  0.0872 -0.1811 -0.1074
  613DLPE   D2A 7536  25.815  11.130   6.639  0.0788  0.0795 -0.1232
  613DLPE   D3A 7537  25.444  11.193   6.451  0.1153 -0.3948  0.0128
  613DLPE   C4A 7538  25.313  11.195   5.993  0.1027  0.2478 -0.3036
  613DLPE   C1B 7539  26.598  10.924   7.266 -0.0495 -0.0081  0.0968
  613DLPE   D2B 7540  26.926  10.724   6.948  0.0037 -0.3653 -0.1649
  613DLPE   D3B 7541  26.947  10.917   6.586  0.1978  0.1209 -0.1865
  613DLPE   C4B 7542  26.875  10.852   6.118  0.3665  0.3383 -0.1977
  614DLPE   NH3 7543  15.811  19.834   7.647  0.1110 -0.0449  0.0433
  614DLPE   PO4 7544  16.106  19.667   7.609  0.2034  0.0973 -0.1028
  614DLPE   GL1 7545  16.099  19.613   7.173 -0.1700  0.2184  0.2349
  614DLPE   GL2 7546  15.923  19.905   7.207  0.0128 -0.1105  0.0746
  614DLPE   C1A 7547  16.056  19.682   6.750  0.1871  0.2183  0.2011
  614DLPE   D2A 7548  16.112  19.702   6.242  0.0485  0.1173  0.0151
  614DLPE   D3A 7549  15.913  20.080   6.000 -0.0539 -0.0198 -0.1202
  614DLPE   C4A 7550  16.254  20.379   5.708  0.0689 -0.1085  0.0366
  614DLPE   C1B 7551  15.842  20.313   6.987 -0.1812  0.2313  0.2470
  614DLPE   D2B 7552  16.069  20.750   6.871  0.1711  0.1174 -0.0334
  614DLPE   D3B 7553  16.382  20.765   7.181 -0.0423  0.1151 -0.1042
  614DLPE   C4B 7554  16.702  21.021   7.455 -0.0815  0.0862 -0.2951
  615DLPE   NH3 7555  22.542  22.861   7.629  0.0145  0.0681 -0.4345
  615DLPE   PO4 7556  22.452  23.007   7.315  0.0069  0.2146  0.0719
  615DLPE   GL1 7557  22.846  22.938   7.073 -0.2455 -0.1136  0.0377
  615DLPE   GL2 7558  22.724  23.163   6.886  0.1075 -0.2405 -0.1100
  615DLPE   C1A 7559  22.943  22.773   6.693  0.1039 -0.0593  0.0550
  615DLPE   D2A 7560  22.948  22.485   6.315  0.3909  0.0065 -0.3362
  615DLPE   D3A 7561  23.076  22.464   5.914  0.1874  0.0866  0.1465
  615DLPE   C4A 7562  23.307  22.481   5.493  0.0854  0.0120  0.0159
  615DLPE   C1B 7563  22.899  23.281   6.454  0.3970  0.2859  0.0536
  615DLPE   D2B 7564  22.777  22.988   6.039  0.2931 -0.1884  0.2756
  615DLPE   D3B 7565  23.092  22.903   5.704  0.3850 -0.2645 -0.0288
  615DLPE   C4B 7566  23.485  23.096   5.564  0.0226 -0.2442  0.3484
  616DLPE   NH3 7567  14.762  26.639   8.180 -0.1940 -0.2005  0.1367
  616DLPE   PO4 7568  14.612  26.825   7.932  0.3377 -0.3662 -0.1789
  616DLPE   GL1 7569  14.504  26.673   7.516  0.2355 -0.1979  0.0561
  616DLPE   GL2 7570  14.594  26.437   7.606  0.1023 -0.0133  0.5082
  616DLPE   C1A 7571  14.044  26.666   7.311  0.0603 -0.0288  0.2273
  616DLPE   D2A 7572  13.684  27.028   7.257  0.2047  0.0096  0.0481
  616DLPE   D3A 7573  13.823  27.460   7.167 -0.0912 -0.0783  0.2788
  616DLPE   C4A 7574  14.040  27.437   6.721 -0.0796 -0.0038  0.0884
  616DLPE   C1B 7575  14.664  26.111   7.362 -0.3452  0.0434 -0.1969
  616DLPE   D2B 7576  14.675  26.091   6.912  0.0041 -0.3569 -0.0739
  616DLPE   D3B 7577  14.900  26.103   6.570 -0.4327 -0.1099 -0.1821
  616DLPE   C4B 7578  14.519  26.163   6.266  0.0240 -0.2894 -0.1672
  617DLPE   NH3 7579  24.823   9.680   7.539 -0.0238 -0.0445  0.3161
  617DLPE   PO4 7580  24.903   9.339   7.627  0.2564  0.1485  0.1199
  617DLPE   GL1 7581  24.951   9.248   7.240  0.1749 -0.0106  0.0532
  617DLPE   GL2 7582  24.940   8.934   7.301 -0.2145  0.2688  0.1304
  617DLPE   C1A 7583  25.158   9.366   6.949 -0.0629 -0.2923 -0.0842
  617DLPE   D2A 7584  25.546   9.223   6.743 -0.2629 -0.0542 -0.2391
  617DLPE   D3A 7585  25.539   9.216   6.294 -0.2220  0.2887  0.0537
  617DLPE   C4A 7586  25.155   9.395   6.019 -0.0136  0.1619  0.0322
  617DLPE   C1B 7587  24.894   8.602   7.029  0.1872 -0.2552  0.1396
  617DLPE   D2B 7588  25.258   8.426   6.745  0.0495 -0.2136 -0.1925
  617DLPE   D3B 7589  25.295   8.309   7.173 -0.2117  0.1201 -0.0502
  617DLPE   C4B 7590  25.034   7.955   7.002 -0.1311  0.0058 -0.2930
  618DLPE   NH3 7591   5.221  26.112   7.820  0.3386 -0.1031  0.1263
  618DLPE   PO4 7592   5.164  25.765   7.788  0.1017  0.0292 -0.1066
  618DLPE   GL1 7593   5.026  25.624   7.478 -0.1931  0.2558 -0.2983
  618DLPE   GL2 7594   4.837  25.370   7.473 -0.2918  0.0040  0.1377
  618DLPE   C1A 7595   4.934  25.873   7.130  0.1517 -0.0584  0.2558
  618DLPE   D2A 7596   4.900  26.162   6.716  0.1281  0.0771 -0.0076
  618DLPE   D3A 7597   4.952  26.035   6.302 -0.2205 -0.1700 -0.1844
  618DLPE   C4A 7598   4.859  25.612   6.160 -0.0647 -0.3761 -0.0695
  618DLPE   C1B 7599   4.973  25.081   7.215  0.0757 -0.0394  0.0045
  618DLPE   D2B 7600   5.365  24.900   6.917 -0.0100 -0.1516 -0.3440
  618DLPE   D3B 7601   5.534  24.989   6.487  0.0105  0.1849  0.5430
  618DLPE   C4B 7602   5.854  24.883   6.140  0.1007 -0.1016  0.2570
  619DLPE   NH3 7603   9.031  11.737   7.762  0.4001 -0.1444  0.0709
  619DLPE   PO4 7604   9.337  11.640   7.593  0.4622 -0.1257  0.2463
  619DLPE   GL1 7605   9.327  11.657   7.173  0.1965 -0.3749 -0.0395
  619DLPE   GL2 7606   8.966  11.693   7.198 -0.4044  0.0160 -0.2976
  619DLPE   C1A 7607   9.391  11.545   6.761  0.1851 -0.1032  0.1857
  619DLPE   D2A 7608   9.655  11.528   6.339 -0.0868  0.0375  0.1493
  619DLPE   D3A 7609   9.800  11.291   6.000 -0.1509  0.1050  0.2510
  619DLPE   C4A 7610   9.962  11.411   5.599  0.2353  0.0481 -0.0097
  619DLPE   C1B 7611   8.924  11.549   6.762  0.0082 -0.3397 -0.1237
  619DLPE   D2B 7612   9.139  11.548   6.296 -0.0846 -0.0407 -0.1603
  619DLPE   D3B 7613   9.196  11.763   5.892  0.0284  0.1887 -0.0575
  619DLPE   C4B 7614   9.123  12.251   5.866 -0.1903  0.0208 -0.0084
  620DLPE   NH3 7615  24.416  20.189   7.699  0.1743 -0.1882 -0.4092
  620DLPE   PO4 7616  24.323  19.869   7.608  0.1697 -0.1571 -0.3545
  620DLPE   GL1 7617  24.387  20.036   7.232  0.0980 -0.1784  0.2796
  620DLPE   GL2 7618  24.436  19.725   7.142  0.4043 -0.1703 -0.0377
  620DLPE   C1A 7619  24.364  20.226   6.791  0.2080  0.0538  0.1856
  620DLPE   D2A 7620  24.040  20.519   6.531  0.0969 -0.5855  0.3818
  620DLPE   D3A 7621  24.295  20.342   6.284 -0.0341  0.3077  0.2553
  620DLPE   C4A 7622  24.564  20.025   6.377 -0.0342 -0.1805  0.2831
  620DLPE   C1B 7623  24.748  19.634   6.850  0.0175 -0.3810  0.2883
  620DLPE   D2B 7624  24.764  19.498   6.405  0.0131 -0.0761 -0.1037
  620DLPE   D3B 7625  24.844  19.332   5.970  0.1676 -0.1055 -0.1981
  620DLPE   C4B 7626  24.618  19.332   5.498  0.4904 -0.1621  0.1496
  621DLPE   NH3 7627  23.146  17.917   7.535 -0.1576  0.0947 -0.4162
  621DLPE   PO4 7628  22.933  17.982   7.273  0.0723  0.1083 -0.0629
  621DLPE   GL1 7629  22.790  17.983   6.929 -0.1115 -0.2306 -0.0895
  621DLPE   GL2 7630  22.751  18.243   6.845  0.0960 -0.0059 -0.1265
  621DLPE   C1A 7631  22.830  17.746   6.633 -0.3975 -0.0604 -0.0272
  621DLPE   D2A 7632  22.922  17.870   6.181 -0.2698  0.1260 -0.1000
  621DLPE   D3A 7633  22.874  18.032   5.785  0.1935  0.2115 -0.2373
  621DLPE   C4A 7634  22.907  18.412   5.542  0.0605 -0.0503  0.0957
  621DLPE   C1B 7635  22.671  18.250   6.376  0.0920  0.1242 -0.1806
  621DLPE   D2B 7636  22.602  18.480   5.956 -0.4844 -0.1486  0.0058
  621DLPE   D3B 7637  22.544  18.835   5.729 -0.3297  0.4751 -0.1492
  621DLPE   C4B 7638  22.720  18.754   5.267 -0.4604  0.0498 -0.1911
  622DLPE   NH3 7639  21.331  11.740   7.624  0.0816 -0.0462 -0.1388
  622DLPE   PO4 7640  21.358  11.960   7.356  0.0293  0.3331  0.1205
  622DLPE   GL1 7641  21.220  11.992   6.880 -0.0648 -0.2361 -0.0499
  622DLPE   GL2 7642  21.501  11.731   6.972  0.0136  0.0633  0.3240
  622DLPE   C1A 7643  20.895  11.812   6.634 -0.2076  0.0918  0.4530
  622DLPE   D2A 7644  20.429  11.825   6.617  0.0204 -0.2186 -0.1962
  622DLPE   D3A 7645  20.116  12.044   6.432  0.1022 -0.0794 -0.1054
  622DLPE   C4A 7646  19.816  12.368   6.290 -0.3105  0.3240  0.1034
  622DLPE   C1B 7647  21.858  11.703   6.730 -0.2783 -0.0699 -0.1883
  622DLPE   D2B 7648  21.999  12.081   6.364  0.1067 -0.0029 -0.2315
  622DLPE   D3B 7649  22.370  12.262   6.146  0.2046  0.0486  0.0642
  622DLPE   C4B 7650  22.727  12.034   6.025  0.1611 -0.1338 -0.1051
  623DLPE   NH3 7651   4.930  22.004   8.048  0.1311 -0.1807  0.1182
  623DLPE   PO4 7652   4.967  21.689   7.935 -0.1632  0.0943 -0.2514
  623DLPE   GL1 7653   5.079  21.812   7.516  0.1534 -0.1323  0.0753
  623DLPE   GL2 7654   5.084  22.151   7.641 -0.2784  0.1530 -0.2900
  623DLPE   C1A 7655   5.401  21.854   7.111 -0.0829  0.0411  0.1373
  623DLPE   D2A 7656   5.675  21.911   6.766  0.1328  0.1688  0.2463
  623DLPE   D3A 7657   6.132  21.996   6.813  0.0650 -0.1399 -0.2414
  623DLPE   C4A 7658   6.590  21.938   6.924  0.2730  0.1744  0.0842
  623DLPE   C1B 7659   5.151  22.262   7.244  0.0636 -0.1580 -0.1680
  623DLPE   D2B 7660   5.022  22.386   6.776 -0.1092  0.0493 -0.2743
  623DLPE   D3B 7661   5.412  22.403   6.674  0.1020  0.0772  0.4534
  623DLPE   C4B 7662   5.606  22.236   6.237  0.2652 -0.0367  0.1992
  624DLPE   NH3 7663  21.511  13.485   7.775  0.0643  0.0243  0.0701
  624DLPE   PO4 7664  21.296  13.225   7.717 -0.3710  0.1625 -0.1541
  624DLPE   GL1 7665  21.241  13.476   7.354 -0.0587 -0.0792  0.2275
  624DLPE   GL2 7666  21.569  13.283   7.333  0.1479  0.0699  0.3289
  624DLPE   C1A 7667  21.232  13.437   6.918  0.0543  0.2619  0.1702
  624DLPE   D2A 7668  21.267  13.209   6.519  0.1119  0.2233  0.3921
  624DLPE   D3A 7669  21.354  13.540   6.158  0.0442 -0.1049  0.1394
  624DLPE   C4A 7670  21.796  13.555   6.021  0.2035 -0.0647  0.4377
  624DLPE   C1B 7671  21.709  13.244   6.903  0.0754 -0.2718 -0.1673
  624DLPE   D2B 7672  21.642  13.608   6.609 -0.0297 -0.2300 -0.2002
  624DLPE   D3B 7673  21.736  13.968   6.326  0.1642 -0.1963 -0.2458
  624DLPE   C4B 7674  21.319  14.074   6.311  0.0840  0.1148  0.0504
  625DLPE   NH3 7675  21.152  16.668   7.248 -0.0178 -0.0894  0.0717
  625DLPE   PO4 7676  21.147  17.020   7.160  0.2132  0.1270 -0.1873
  625DLPE   GL1 7677  21.469  16.985   6.910  0.0282  0.0308  0.0905
  625DLPE   GL2 7678  21.503  16.694   6.873  0.1400  0.2662 -0.0299
  625DLPE   C1A 7679  21.500  17.183   6.539 -0.2304 -0.0632  0.2415
  625DLPE   D2A 7680  21.496  17.412   6.142  0.0226 -0.0197  0.1589
  625DLPE   D3A 7681  21.216  17.047   6.149  0.2737 -0.0870 -0.0504
  625DLPE   C4A 7682  21.124  16.766   5.833 -0.0103 -0.2431 -0.1843
  625DLPE   C1B 7683  21.631  16.721   6.445 -0.0702  0.0391 -0.0861
  625DLPE   D2B 7684  21.679  16.864   5.960 -0.1982 -0.0276 -0.3229
  625DLPE   D3B 7685  21.469  17.045   5.625 -0.0456 -0.0298 -0.0588
  625DLPE   C4B 7686  21.455  17.530   5.464  0.0284 -0.0752  0.2756
  626DLPE   NH3 7687  15.301  26.183   8.030  0.0682 -0.0062 -0.0346
  626DLPE   PO4 7688  14.989  26.193   8.255 -0.0415  0.1508  0.1236
  626DLPE   GL1 7689  14.724  26.204   7.935  0.1883 -0.0768 -0.2371
  626DLPE   GL2 7690  14.910  26.121   7.764 -0.1248 -0.2073  0.2348
  626DLPE   C1A 7691  14.415  25.996   7.795  0.2885 -0.0335  0.0800
  626DLPE   D2A 7692  14.193  25.690   7.489 -0.1284 -0.0479 -0.1538
  626DLPE   D3A 7693  13.982  25.268   7.455 -0.3250 -0.0369  0.1712
  626DLPE   C4A 7694  13.532  25.299   7.259 -0.2169 -0.2382 -0.0349
  626DLPE   C1B 7695  15.046  25.829   7.559  0.1766  0.0363  0.0858
  626DLPE   D2B 7696  15.131  25.899   7.052 -0.3614  0.5271  0.0804
  626DLPE   D3B 7697  15.361  26.007   6.726  0.0585  0.3164 -0.0895
  626DLPE   C4B 7698  15.377  26.475   6.706 -0.1765  0.1761 -0.2019
  627DLPE   NH3 7699   1.347  17.816   7.544  0.3283 -0.1692  0.0527
  627DLPE   PO4 7700   1.112  18.029   7.723  0.0568  0.0025  0.0382
  627DLPE   GL1 7701   1.037  18.295   7.390 -0.0951 -0.0652  0.0080
  627DLPE   GL2 7702   1.314  18.255   7.296 -0.1402  0.0084 -0.1873
  627DLPE   C1A 7703   0.671  18.426   7.068 -0.1896  0.0340 -0.3714
  627DLPE   D2A 7704   0.202  18.578   7.040  0.4950  0.0169  0.1327
  627DLPE   D3A 7705   0.218  19.025   7.093  0.1134 -0.0622  0.0707
  627DLPE   C4A 7706   0.382  19.395   7.351  0.0793 -0.0300  0.1469
  627DLPE   C1B 7707   1.438  18.041   6.974 -0.2096 -0.0265 -0.2521
  627DLPE   D2B 7708   1.395  17.672   6.686 -0.1907  0.2740 -0.2435
  627DLPE   D3B 7709   1.513  17.574   7.108  0.0231 -0.0674 -0.1712
  627DLPE   C4B 7710   1.577  17.183   7.353 -0.1003  0.2454 -0.0455
  628DLPE   NH3 7711  23.241   8.746   7.686  0.0343  0.2424 -0.1335
  628DLPE   PO4 7712  23.584   8.708   7.681  0.2512  0.4540 -0.0586
  628DLPE   GL1 7713  23.534   8.881   7.328 -0.3465 -0.0234 -0.0370
  628DLPE   GL2 7714  23.346   9.058   7.364  0.0696 -0.2852  0.0280
  628DLPE   C1A 7715  23.614   8.673   6.983 -0.1891 -0.0742  0.1403
  628DLPE   D2A 7716  23.461   8.650   6.539  0.1502  0.1245  0.0708
  628DLPE   D3A 7717  23.605   8.751   6.079  0.2991 -0.0977 -0.0203
  628DLPE   C4A 7718  23.833   8.414   5.882 -0.1898 -0.2456 -0.0337
  628DLPE   C1B 7719  23.262   9.024   6.883 -0.0562  0.0130 -0.0087
  628DLPE   D2B 7720  23.103   8.948   6.378 -0.0864  0.2094 -0.1414
  628DLPE   D3B 7721  22.890   8.949   6.001 -0.1183 -0.0140 -0.0144
  628DLPE   C4B 7722  22.871   8.646   5.675 -0.0266  0.3350  0.0319
  629DLPE   NH3 7723  12.430   0.154   8.376 -0.0869  0.0229  0.1060
  629DLPE   PO4 7724  12.292   0.198   8.046  0.3007 -0.0412  0.0714
  629DLPE   GL1 7725  12.205   0.098   7.626  0.1006  0.0886 -0.3131
  629DLPE   GL2 7726  12.535   0.100   7.668  0.1860 -0.0039  0.3282
  629DLPE   C1A 7727  11.803   0.298   7.424  0.2739 -0.1193  0.1314
  629DLPE   D2A 7728  11.780   0.485   6.969 -0.0691 -0.1472  0.1835
  629DLPE   D3A 7729  12.008   0.492   6.517  0.3024  0.1863  0.1931
  629DLPE   C4A 7730  12.174   0.250   6.136  0.0456  0.2780 -0.0170
  629DLPE   C1B 7731  12.643   0.346   7.357  0.0968  0.2449 -0.4141
  629DLPE   D2B 7732  12.734   0.627   6.930  0.0858  0.1046 -0.3096
  629DLPE   D3B 7733  12.513   0.445   6.616  0.2092 -0.1279 -0.1349
  629DLPE   C4B 7734  12.723   0.729   6.358 -0.0490 -0.1006  0.0240
  630DLPE   NH3 7735  10.346  27.043   7.605  0.2577  0.1972  0.1585
  630DLPE   PO4 7736  10.691  27.188   7.583  0.1883  0.0076 -0.4219
  630DLPE   GL1 7737  10.803  27.282   7.210 -0.2256  0.0604  0.3132
  630DLPE   GL2 7738  10.660  27.118   7.113  0.2399  0.0180 -0.3153
  630DLPE   C1A 7739  10.607  27.506   6.777  0.0356 -0.0986  0.0765
  630DLPE   D2A 7740  10.686  27.778   6.414  0.2271  0.0283  0.3075
  630DLPE   D3A 7741  10.892  27.892   5.985  0.1093 -0.0717 -0.1142
  630DLPE   C4A 7742  11.324  27.823   6.122  0.2266  0.1348 -0.0106
  630DLPE   C1B 7743  10.840  27.072   6.702 -0.0333 -0.0426  0.0722
  630DLPE   D2B 7744  10.829  26.951   6.162 -0.0472 -0.1000  0.1092
  630DLPE   D3B 7745  11.290  26.812   6.206 -0.0509 -0.0349 -0.2202
  630DLPE   C4B 7746  11.238  26.791   6.712  0.0269 -0.2768 -0.1440
  631DLPE   NH3 7747  14.166   3.023   8.429  0.2027 -0.1509 -0.1098
  631DLPE   PO4 7748  14.476   3.006   8.311 -0.1567  0.2344  0.0168
  631DLPE   GL1 7749  14.524   3.037   7.940  0.0060 -0.3001  0.2624
  631DLPE   GL2 7750  14.591   2.857   7.808 -0.4808  0.0431  0.0572
  631DLPE   C1A 7751  14.466   3.288   7.626 -0.2094  0.0145 -0.3532
  631DLPE   D2A 7752  14.688   3.487   7.267 -0.0212  0.1446 -0.5285
  631DLPE   D3A 7753  14.717   3.108   6.933 -0.2052  0.1998  0.2731
  631DLPE   C4A 7754  14.614   2.617   7.023 -0.0184 -0.0257 -0.1154
  631DLPE   C1B 7755  14.443   2.635   7.497  0.1766 -0.1584  0.0100
  631DLPE   D2B 7756  13.984   2.516   7.428  0.2052  0.1916  0.4853
  631DLPE   D3B 7757  13.809   2.429   6.966 -0.3224  0.2616 -0.3717
  631DLPE   C4B 7758  13.837   2.514   6.528  0.0537 -0.1698 -0.2661
  632DLPE   NH3 7759   8.684   7.228   7.510 -0.2906 -0.3299  0.2528
  632DLPE   PO4 7760   8.790   7.598   7.439 -0.0989 -0.2814  0.1337
  632DLPE   GL1 7761   8.776   7.646   7.016  0.2192 -0.1948 -0.0925
  632DLPE   GL2 7762   9.008   7.826   6.945 -0.4203 -0.1706 -0.1004
  632DLPE   C1A 7763   8.595   7.550   6.655  0.3209  0.0565  0.1441
  632DLPE   D2A 7764   8.585   7.496   6.166  0.0712 -0.1875  0.0581
  632DLPE   D3A 7765   8.192   7.319   6.022 -0.0971 -0.1883 -0.3181
  632DLPE   C4A 7766   8.022   7.056   5.623 -0.1741 -0.0148 -0.0529
  632DLPE   C1B 7767   9.101   7.481   6.712  0.0294  0.0639  0.1878
  632DLPE   D2B 7768   9.009   7.353   6.275  0.0080 -0.0439 -0.2131
  632DLPE   D3B 7769   9.142   6.907   6.270  0.0406  0.1796  0.1880
  632DLPE   C4B 7770   9.460   6.759   5.912 -0.1283  0.2914  0.1747
  633DLPE   NH3 7771  17.772  20.759   8.430  0.0044  0.5111  0.1427
  633DLPE   PO4 7772  17.934  20.660   8.143 -0.0624 -0.0993  0.0173
  633DLPE   GL1 7773  17.792  20.867   7.769  0.3640 -0.1485  0.0854
  633DLPE   GL2 7774  17.703  20.637   7.774 -0.1299 -0.1176  0.2840
  633DLPE   C1A 7775  17.737  20.986   7.298  0.2036 -0.1922 -0.1157
  633DLPE   D2A 7776  17.500  21.181   6.957 -0.0275 -0.0269 -0.1166
  633DLPE   D3A 7777  17.488  21.200   6.482  0.1255  0.3732  0.0160
  633DLPE   C4A 7778  17.651  21.153   6.066  0.4891  0.1047 -0.0657
  633DLPE   C1B 7779  17.415  20.622   7.460  0.0269 -0.0984 -0.2304
  633DLPE   D2B 7780  17.305  20.744   7.030 -0.1142 -0.2160  0.0125
  633DLPE   D3B 7781  17.124  20.959   6.715  0.1733  0.0756  0.0012
  633DLPE   C4B 7782  17.156  20.910   6.265  0.1051 -0.0805  0.1626
  634DLPE   NH3 7783  20.628  15.396   7.087 -0.0317 -0.2333  0.0285
  634DLPE   PO4 7784  20.775  15.715   7.053 -0.0778 -0.2125 -0.1275
  634DLPE   GL1 7785  20.989  15.728   6.679 -0.0699 -0.1143 -0.1763
  634DLPE   GL2 7786  20.728  15.507   6.541 -0.1742  0.2101 -0.4763
  634DLPE   C1A 7787  21.345  15.546   6.456  0.1189 -0.0784  0.0130
  634DLPE   D2A 7788  21.724  15.391   6.199  0.0591  0.0170 -0.0217
  634DLPE   D3A 7789  22.014  15.434   5.882  0.1533 -0.0397 -0.2242
  634DLPE   C4A 7790  22.219  15.704   5.513  0.0069 -0.1594  0.5809
  634DLPE   C1B 7791  20.805  15.293   6.123  0.0030 -0.0085 -0.1059
  634DLPE   D2B 7792  20.866  15.279   5.638 -0.1167  0.1149  0.1252
  634DLPE   D3B 7793  20.726  15.047   5.332  0.0312  0.0063  0.0290
  634DLPE   C4B 7794  20.489  14.833   4.968  0.0184  0.1712 -0.1236
  635DLPE   NH3 7795  13.509  11.124   7.723  0.2746  0.0102  0.0652
  635DLPE   PO4 7796  13.236  11.338   7.819 -0.1318  0.3723  0.1662
  635DLPE   GL1 7797  13.130  11.360   7.480 -0.1386  0.1038  0.1803
  635DLPE   GL2 7798  12.908  11.160   7.655 -0.1486 -0.4303 -0.0342
  635DLPE   C1A 7799  13.079  11.769   7.335  0.2224 -0.3129 -0.0277
  635DLPE   D2A 7800  12.661  11.955   7.107  0.0134 -0.0007 -0.0787
  635DLPE   D3A 7801  12.429  11.895   6.714 -0.1429 -0.0502 -0.0353
  635DLPE   C4A 7802  12.388  11.895   6.242 -0.0007 -0.2390  0.0957
  635DLPE   C1B 7803  12.753  10.924   7.275  0.0402 -0.3858  0.1553
  635DLPE   D2B 7804  12.997  10.582   6.995  0.1325  0.0635 -0.2466
  635DLPE   D3B 7805  12.913  10.953   6.743 -0.0610 -0.0479  0.0814
  635DLPE   C4B 7806  12.983  10.898   6.308 -0.1005  0.2465  0.3174
  636DLPE   NH3 7807  14.033   8.103   7.920  0.1501 -0.1984 -0.5437
  636DLPE   PO4 7808  13.704   8.204   7.958  0.1295  0.1872  0.0073
  636DLPE   GL1 7809  13.683   8.352   7.567  0.0343  0.0277  0.4311
  636DLPE   GL2 7810  13.438   8.198   7.488  0.3028 -0.0299 -0.1110
  636DLPE   C1A 7811  13.901   8.524   7.288  0.0945  0.1838  0.0656
  636DLPE   D2A 7812  14.009   8.314   6.847  0.1458 -0.4472  0.2231
  636DLPE   D3A 7813  13.691   8.084   7.105 -0.1480 -0.1438  0.4545
  636DLPE   C4A 7814  13.633   7.591   7.008 -0.0711  0.1125  0.0646
  636DLPE   C1B 7815  13.116   8.189   7.186 -0.1828 -0.1044 -0.1351
  636DLPE   D2B 7816  12.666   8.237   7.036  0.2455  0.2405  0.2084
  636DLPE   D3B 7817  12.409   7.944   7.092  0.0913  0.0508  0.0767
  636DLPE   C4B 7818  12.154   8.187   6.854  0.2346  0.2588  0.0378
  637DLPE   NH3 7819   2.507  18.312   7.681  0.0223  0.1048  0.0578
  637DLPE   PO4 7820   2.320  18.064   7.854  0.1274  0.0450 -0.1329
  637DLPE   GL1 7821   2.160  17.937   7.543  0.0663  0.1717 -0.1439
  637DLPE   GL2 7822   2.455  17.870   7.378  0.2394  0.1715 -0.2232
  637DLPE   C1A 7823   1.881  17.931   7.217 -0.1002 -0.2592 -0.2282
  637DLPE   D2A 7824   1.905  17.700   6.783  0.1820  0.0211  0.1010
  637DLPE   D3A 7825   1.859  17.775   6.345  0.2432  0.0194 -0.2304
  637DLPE   C4A 7826   1.461  17.422   6.168  0.1755  0.1118 -0.2085
  637DLPE   C1B 7827   2.742  17.648   7.139  0.0450  0.0945  0.1575
  637DLPE   D2B 7828   3.211  17.481   7.014  0.2519  0.2165 -0.2775
  637DLPE   D3B 7829   3.450  17.156   7.164  0.1203  0.1987 -0.5508
  637DLPE   C4B 7830   3.582  16.940   6.766 -0.2550  0.1367  0.0344
  638DLPE   NH3 7831   8.681   0.873   7.696  0.0096 -0.1958 -0.1209
  638DLPE   PO4 7832   8.360   0.925   7.592 -0.0565 -0.0970 -0.3720
  638DLPE   GL1 7833   8.378   0.762   7.196 -0.0533  0.2666  0.0729
  638DLPE   GL2 7834   8.553   0.602   7.167 -0.0039 -0.1476  0.1393
  638DLPE   C1A 7835   8.233   0.886   6.761  0.0929  0.5188  0.0189
  638DLPE   D2A 7836   8.213   0.840   6.289  0.3302  0.4332 -0.0505
  638DLPE   D3A 7837   8.006   0.770   5.913  0.1669  0.0730 -0.0175
  638DLPE   C4A 7838   7.575   1.046   5.935  0.1534  0.3001  0.0223
  638DLPE   C1B 7839   8.398   0.416   6.839 -0.0888  0.0711 -0.3159
  638DLPE   D2B 7840   8.413   0.330   6.383  0.0751  0.0227 -0.0095
  638DLPE   D3B 7841   8.286   0.242   5.927 -0.1161 -0.2091 -0.2316
  638DLPE   C4B 7842   8.253  -0.246   5.936 -0.1246 -0.1463  0.1366
  639DLPE   NH3 7843   2.167  18.674   7.969 -0.0426 -0.1780  0.0262
  639DLPE   PO4 7844   1.997  18.496   7.725  0.0523  0.0364  0.0169
  639DLPE   GL1 7845   2.085  18.333   7.301 -0.1349 -0.3175  0.2404
  639DLPE   GL2 7846   1.774  18.395   7.290  0.0745  0.4128 -0.0090
  639DLPE   C1A 7847   2.318  18.540   6.961  0.1802  0.1963 -0.0404
  639DLPE   D2A 7848   2.724  18.514   6.638 -0.1733 -0.2101 -0.2442
  639DLPE   D3A 7849   2.556  18.110   6.518  0.1492 -0.0906 -0.2206
  639DLPE   C4A 7850   2.871  18.009   6.823  0.1513 -0.0413 -0.2822
  639DLPE   C1B 7851   1.447  18.562   6.976  0.0947  0.3242  0.3309
  639DLPE   D2B 7852   1.013  18.606   6.745  0.1659  0.1678  0.0875
  639DLPE   D3B 7853   1.311  18.821   6.444 -0.1002 -0.2526 -0.0688
  639DLPE   C4B 7854   1.347  18.990   5.990 -0.0919 -0.0794  0.1768
  640DLPE   NH3 7855  14.605   6.955   7.588  0.0170 -0.4677  0.1178
  640DLPE   PO4 7856  14.886   7.224   7.616  0.1591  0.1406  0.1272
  640DLPE   GL1 7857  14.919   7.400   7.220 -0.0251 -0.0236 -0.1624
  640DLPE   GL2 7858  14.747   7.128   7.188  0.1527 -0.1520  0.1731
  640DLPE   C1A 7859  14.598   7.636   7.111  0.1066  0.2693  0.3117
  640DLPE   D2A 7860  14.130   7.696   6.898  0.1057 -0.1622 -0.0477
  640DLPE   D3A 7861  13.845   7.924   6.635  0.0517  0.0192 -0.1957
  640DLPE   C4A 7862  13.596   8.187   6.349 -0.1797 -0.1038  0.1295
  640DLPE   C1B 7863  14.503   7.253   6.808 -0.2774  0.1819 -0.2263
  640DLPE   D2B 7864  14.150   7.446   6.476  0.2167  0.0419  0.0191
  640DLPE   D3B 7865  14.177   7.513   6.050  0.0493 -0.2419  0.0852
  640DLPE   C4B 7866  14.324   7.290   5.722  0.1250  0.2950 -0.2694
  641DLPE   NH3 7867  18.200   6.289   6.752  0.0780  0.2262 -0.0910
  641DLPE   PO4 7868  18.527   6.349   6.872 -0.2632  0.0976 -0.0968
  641DLPE   GL1 7869  18.808   6.147   6.606 -0.0550 -0.0638  0.1419
  641DLPE   GL2 7870  18.584   5.983   6.567 -0.1173  0.3149  0.0693
  641DLPE   C1A 7871  18.799   6.092   6.131  0.0087 -0.0184  0.0632
  641DLPE   D2A 7872  18.533   5.904   5.716  0.2310 -0.4218 -0.2759
  641DLPE   D3A 7873  18.268   5.731   5.452 -0.2124  0.3765  0.2773
  641DLPE   C4A 7874  18.199   5.965   5.030  0.1422  0.0563  0.0065
  641DLPE   C1B 7875  18.492   5.717   6.207 -0.2571 -0.4124  0.2505
  641DLPE   D2B 7876  18.106   5.526   5.948 -0.4627 -0.1770 -0.2208
  641DLPE   D3B 7877  18.072   5.125   5.842 -0.0086 -0.0269  0.2988
  641DLPE   C4B 7878  18.483   4.890   5.715 -0.4477  0.0544  0.0615
  642DLPE   NH3 7879   4.533   6.507   7.649 -0.1844  0.1925  0.0845
  642DLPE   PO4 7880   4.411   6.189   7.605 -0.1339  0.2389  0.3980
  642DLPE   GL1 7881   4.442   6.037   7.196  0.1020 -0.0581  0.0273
  642DLPE   GL2 7882   4.657   6.259   7.158 -0.2183  0.0034  0.0121
  642DLPE   C1A 7883   4.181   5.838   6.904  0.0078 -0.0671  0.2140
  642DLPE   D2A 7884   3.985   5.660   6.511 -0.0692 -0.0566 -0.1595
  642DLPE   D3A 7885   4.042   5.348   6.175 -0.0721 -0.1729 -0.0118
  642DLPE   C4A 7886   3.841   5.218   5.770  0.0522 -0.2244  0.0700
  642DLPE   C1B 7887   4.652   6.377   6.752 -0.1922  0.1771 -0.0347
  642DLPE   D2B 7888   4.709   5.967   6.485  0.0612  0.1238 -0.0709
  642DLPE   D3B 7889   4.690   5.801   6.903 -0.4381 -0.0330  0.3445
  642DLPE   C4B 7890   5.126   5.483   6.940 -0.2264 -0.3637 -0.2230
  643DLPE   NH3 7891  27.179  19.662   7.876 -0.1630 -0.1765  0.3763
  643DLPE   PO4 7892  27.565  19.657   7.927  0.4701  0.2204  0.1586
  643DLPE   GL1 7893  27.599  19.563   7.535 -0.2508 -0.0780 -0.2990
  643DLPE   GL2 7894  27.771  19.809   7.475 -0.1400  0.1309 -0.0970
  643DLPE   C1A 7895  27.593  19.518   7.037 -0.1028 -0.1095 -0.0785
  643DLPE   D2A 7896  27.737  19.348   6.622  0.4505 -0.2671  0.2155
  643DLPE   D3A 7897  27.959  19.058   6.332 -0.0655  0.2274  0.0076
  643DLPE   C4A 7898  28.086  18.898   5.858  0.0094  0.3481 -0.2476
  643DLPE   C1B 7899  27.639  20.100   7.166 -0.0656 -0.2743  0.0438
  643DLPE   D2B 7900  27.312  20.455   6.953 -0.1168  0.0540  0.0797
  643DLPE   D3B 7901  27.018  20.453   6.661 -0.3447  0.0358  0.3518
  643DLPE   C4B 7902  26.986  20.570   6.236 -0.3886  0.2638 -0.0512
  644DLPE   NH3 7903  21.945  26.668   7.764 -0.2596  0.0009  0.2689
  644DLPE   PO4 7904  21.775  26.885   7.541  0.4184  0.1934 -0.1391
  644DLPE   GL1 7905  21.648  26.949   7.160 -0.1738  0.0192  0.0328
  644DLPE   GL2 7906  21.918  27.000   7.069 -0.0906  0.2116  0.0788
  644DLPE   C1A 7907  21.305  26.936   6.890 -0.1507 -0.1199 -0.0415
  644DLPE   D2A 7908  21.250  26.823   6.417  0.0329 -0.2196 -0.2507
  644DLPE   D3A 7909  21.658  26.804   6.149  0.1942  0.1257 -0.1330
  644DLPE   C4A 7910  21.643  26.319   5.967  0.0210 -0.1043 -0.1331
  644DLPE   C1B 7911  21.796  26.924   6.690  0.2575 -0.0408  0.1017
  644DLPE   D2B 7912  21.940  26.482   6.467 -0.0518 -0.0384 -0.0065
  644DLPE   D3B 7913  22.229  26.459   6.096 -0.2457 -0.1992  0.1851
  644DLPE   C4B 7914  22.430  26.127   5.716  0.0347  0.1162  0.3100
  645DLPE   NH3 7915  18.807  11.860   7.098 -0.0719 -0.2287 -0.0419
  645DLPE   PO4 7916  19.070  11.674   7.150  0.2109 -0.1237 -0.2522
  645DLPE   GL1 7917  19.201  11.561   6.746  0.0169  0.6701 -0.2822
  645DLPE   GL2 7918  19.097  11.884   6.617  0.0537 -0.1679  0.0854
  645DLPE   C1A 7919  19.268  11.226   6.379 -0.0795  0.2593 -0.1432
  645DLPE   D2A 7920  19.670  10.942   6.301 -0.1646 -0.0176 -0.0903
  645DLPE   D3A 7921  19.649  11.239   5.989 -0.1159 -0.1050  0.0119
  645DLPE   C4A 7922  19.923  11.510   5.699 -0.0854 -0.0199  0.0869
  645DLPE   C1B 7923  18.820  12.036   6.192  0.0278  0.0521  0.0363
  645DLPE   D2B 7924  18.629  12.173   5.802  0.2357  0.0152 -0.2111
  645DLPE   D3B 7925  18.689  12.236   5.276 -0.1936  0.0233 -0.4171
  645DLPE   C4B 7926  18.504  11.859   5.378  0.1760 -0.3288 -0.0145
  646DLPE   NH3 7927  12.670   1.002   8.161  0.0957 -0.1405  0.1251
  646DLPE   PO4 7928  12.381   1.143   8.022  0.3259  0.1097 -0.0228
  646DLPE   GL1 7929  12.168   1.036   7.660  0.2870  0.4832  0.3587
  646DLPE   GL2 7930  12.427   1.002   7.549  0.3946 -0.2049  0.2015
  646DLPE   C1A 7931  12.041   1.231   7.279 -0.1745 -0.4161 -0.2487
  646DLPE   D2A 7932  12.064   0.974   6.901  0.1556 -0.1039  0.1844
  646DLPE   D3A 7933  12.291   0.885   6.503 -0.0607  0.0154  0.0832
  646DLPE   C4A 7934  12.518   1.057   6.049 -0.0345  0.0064 -0.0935
  646DLPE   C1B 7935  12.364   0.748   7.208  0.1575  0.1449  0.1208
  646DLPE   D2B 7936  12.207   0.321   7.134 -0.0277 -0.3596  0.1911
  646DLPE   D3B 7937  12.191   0.035   6.799 -0.3399 -0.0130 -0.1195
  646DLPE   C4B 7938  12.487  -0.185   6.473  0.0493 -0.1186 -0.0418
  647DLPE   NH3 7939  15.775  10.177   7.681 -0.0946 -0.1546  0.0720
  647DLPE   PO4 7940  16.076  10.148   7.773 -0.0314 -0.1074  0.0311
  647DLPE   GL1 7941  16.141  10.220   7.399 -0.1316  0.0140  0.1224
  647DLPE   GL2 7942  16.471  10.151   7.417  0.1372  0.2192 -0.5431
  647DLPE   C1A 7943  15.960  10.250   6.965  0.2973  0.0611  0.0264
  647DLPE   D2A 7944  15.928  10.373   6.457  0.0280  0.0660  0.1061
  647DLPE   D3A 7945  16.324  10.215   6.433 -0.0161  0.0627 -0.2487
  647DLPE   C4A 7946  16.572  10.529   6.661 -0.1774 -0.0666 -0.3078
  647DLPE   C1B 7947  16.788  10.293   7.189  0.1461  0.1527 -0.1163
  647DLPE   D2B 7948  17.006  10.596   6.845  0.3327 -0.3995 -0.1368
  647DLPE   D3B 7949  17.375  10.347   6.793  0.3245 -0.0100 -0.3409
  647DLPE   C4B 7950  17.452  10.104   6.436 -0.1264 -0.1723  0.1433
  648DLPE   NH3 7951  15.945   1.940   8.117 -0.3493  0.1262  0.0469
  648DLPE   PO4 7952  16.268   2.110   8.139 -0.0315  0.0338 -0.2466
  648DLPE   GL1 7953  16.418   1.983   7.745 -0.2221 -0.0857  0.4854
  648DLPE   GL2 7954  16.156   2.123   7.669 -0.6115  0.0377  0.0791
  648DLPE   C1A 7955  16.553   2.131   7.425 -0.1665 -0.0141 -0.2617
  648DLPE   D2A 7956  16.773   2.263   7.010  0.3683  0.2105  0.0130
  648DLPE   D3A 7957  17.041   2.575   7.001  0.3210  0.4209 -0.1220
  648DLPE   C4A 7958  16.893   2.786   6.573  0.0452  0.0927  0.4455
  648DLPE   C1B 7959  16.056   2.411   7.332 -0.0520  0.0621  0.1999
  648DLPE   D2B 7960  15.904   2.348   6.928 -0.0068  0.3394  0.0839
  648DLPE   D3B 7961  15.982   2.362   6.399 -0.1258  0.0959  0.1728
  648DLPE   C4B 7962  15.903   2.135   6.020 -0.1542  0.1987 -0.0125
  649DLPE   NH3 7963  22.256  17.242   7.100 -0.0969  0.2633 -0.2002
  649DLPE   PO4 7964  21.898  17.178   7.133  0.1440  0.3311 -0.1617
  649DLPE   GL1 7965  21.693  17.405   6.849  0.0135 -0.1652 -0.0341
  649DLPE   GL2 7966  21.933  17.156   6.668  0.3162 -0.0634  0.0046
  649DLPE   C1A 7967  21.564  17.733   6.545 -0.1992  0.3759 -0.0175
  649DLPE   D2A 7968  21.641  18.054   6.158 -0.0554 -0.1442  0.0259
  649DLPE   D3A 7969  21.548  17.816   5.818 -0.4083  0.1330  0.1441
  649DLPE   C4A 7970  21.926  18.011   5.611 -0.0874 -0.2407 -0.0256
  649DLPE   C1B 7971  21.992  17.047   6.285  0.1936 -0.1519 -0.1197
  649DLPE   D2B 7972  22.316  17.038   5.895 -0.3172  0.0120  0.0128
  649DLPE   D3B 7973  22.259  17.179   5.471 -0.4656 -0.0545 -0.1749
  649DLPE   C4B 7974  22.500  17.340   5.065 -0.0543  0.1936 -0.0247
  650DLPE   NH3 7975   5.907  27.065   7.754  0.0289  0.1416  0.1609
  650DLPE   PO4 7976   5.593  27.079   7.849  0.1921 -0.0792 -0.5579
  650DLPE   GL1 7977   5.416  26.893   7.515  0.0245 -0.1077  0.4863
  650DLPE   GL2 7978   5.622  26.803   7.408 -0.3707  0.3822 -0.1186
  650DLPE   C1A 7979   5.176  26.944   7.162  0.3850 -0.2227 -0.0633
  650DLPE   D2A 7980   5.154  27.044   6.673  0.2133 -0.1843  0.0534
  650DLPE   D3A 7981   5.106  27.071   6.227 -0.1346  0.0026  0.0710
  650DLPE   C4A 7982   4.677  27.254   6.082  0.0099 -0.1920  0.0729
  650DLPE   C1B 7983   5.693  26.831   6.985  0.1561 -0.0722 -0.1886
  650DLPE   D2B 7984   6.106  26.910   6.777  0.1612 -0.0706  0.2401
  650DLPE   D3B 7985   5.816  26.548   6.596  0.0013  0.3135 -0.2265
  650DLPE   C4B 7986   5.977  26.417   6.222 -0.1023 -0.2119  0.0689
  651DLPE   NH3 7987  19.690  13.103   7.169 -0.0996  0.0159 -0.1947
  651DLPE   PO4 7988  19.878  13.272   6.962 -0.0668 -0.0539  0.3822
  651DLPE   GL1 7989  19.744  13.353   6.650 -0.3831 -0.0325 -0.2672
  651DLPE   GL2 7990  19.897  13.609   6.577 -0.3519  0.2304 -0.3119
  651DLPE   C1A 7991  19.409  13.434   6.418 -0.2214 -0.3593 -0.0390
  651DLPE   D2A 7992  19.370  13.876   6.184  0.4874 -0.0264  0.4054
  651DLPE   D3A 7993  19.425  13.907   5.733  0.0720  0.2296 -0.2227
  651DLPE   C4A 7994  19.749  14.144   5.433 -0.0087 -0.0016  0.1760
  651DLPE   C1B 7995  19.901  13.646   6.115 -0.1766  0.0140  0.0241
  651DLPE   D2B 7996  19.794  13.610   5.618 -0.1695  0.0307  0.2342
  651DLPE   D3B 7997  19.754  13.276   5.290 -0.0794  0.0685 -0.1496
  651DLPE   C4B 7998  19.837  12.823   5.218  0.1129 -0.3178  0.0023
  652DLPE   NH3 7999  18.397  13.900   6.973  0.0398  0.0287 -0.0810
  652DLPE   PO4 8000  18.354  14.198   7.070  0.2233 -0.1422 -0.1308
  652DLPE   GL1 8001  17.970  14.241   6.767 -0.4112  0.0327  0.0508
  652DLPE   GL2 8002  18.162  14.196   6.535  0.3016  0.0464  0.2027
  652DLPE   C1A 8003  17.858  14.576   6.516  0.5589  0.1581  0.0072
  652DLPE   D2A 8004  17.783  14.721   6.084 -0.0511 -0.2385  0.1424
  652DLPE   D3A 8005  18.029  14.841   5.812  0.0074 -0.2763 -0.0592
  652DLPE   C4A 8006  18.130  15.321   5.681  0.1976  0.1727 -0.1740
  652DLPE   C1B 8007  18.203  14.342   6.105  0.0151  0.2263 -0.3332
  652DLPE   D2B 8008  18.227  14.205   5.597 -0.1634  0.1693  0.2888
  652DLPE   D3B 8009  18.183  14.279   5.174  0.1472  0.1430 -0.0141
  652DLPE   C4B 8010  18.315  14.610   4.850 -0.3285 -0.0930 -0.0363
  653DLPE   NH3 8011  14.181  25.046   8.312 -0.2645 -0.2511 -0.1757
  653DLPE   PO4 8012  14.230  24.727   8.189 -0.1374 -0.1076  0.0748
  653DLPE   GL1 8013  14.329  24.732   7.746  0.1166 -0.3675  0.4619
  653DLPE   GL2 8014  14.232  24.583   7.598 -0.1476 -0.1961  0.2750
  653DLPE   C1A 8015  14.421  25.133   7.552 -0.1280  0.0584  0.0740
  653DLPE   D2A 8016  14.411  25.230   7.090 -0.1811  0.3267  0.1277
  653DLPE   D3A 8017  14.228  25.161   6.694 -0.4113  0.1066 -0.0718
  653DLPE   C4A 8018  14.050  25.452   6.376 -0.3288  0.0387  0.3161
  653DLPE   C1B 8019  14.384  24.776   7.210 -0.0248 -0.1816 -0.1054
  653DLPE   D2B 8020  14.421  24.696   6.723 -0.0951  0.0417  0.2720
  653DLPE   D3B 8021  14.449  24.949   6.293 -0.0287  0.0226 -0.1797
  653DLPE   C4B 8022  14.626  25.408   6.407  0.0158 -0.0257  0.1916
  654DLPE   NH3 8023  22.564  27.528   7.118  0.6084  0.3990  0.1630
  654DLPE   PO4 8024  22.301  27.263   7.087  0.0142  0.1386  0.2223
  654DLPE   GL1 8025  22.226  27.210   6.646  0.1291  0.2782 -0.4312
  654DLPE   GL2 8026  22.299  27.495   6.626 -0.2210  0.0501  0.0796
  654DLPE   C1A 8027  22.196  26.950   6.278 -0.1269 -0.2577 -0.2227
  654DLPE   D2A 8028  22.099  26.866   5.805 -0.1851 -0.2609  0.0052
  654DLPE   D3A 8029  22.294  26.786   5.406 -0.0459 -0.0815  0.0805
  654DLPE   C4A 8030  22.472  26.404   5.151 -0.3033  0.0564  0.3260
  654DLPE   C1B 8031  22.171  27.437   6.169  0.0270 -0.1084 -0.0130
  654DLPE   D2B 8032  21.708  27.295   5.854 -0.0303  0.0698  0.0795
  654DLPE   D3B 8033  21.711  27.730   5.788  0.0333 -0.0234 -0.1203
  654DLPE   C4B 8034  21.381  27.920   5.489 -0.1113  0.1980 -0.2053
  655DLPE   NH3 8035   8.713   5.912   7.272  0.0137  0.2041 -0.0308
  655DLPE   PO4 8036   8.672   6.275   7.256 -0.1238  0.0386  0.3337
  655DLPE   GL1 8037   8.839   6.235   6.780 -0.2403 -0.0121  0.1394
  655DLPE   GL2 8038   8.516   6.293   6.811 -0.1537  0.0510 -0.1949
  655DLPE   C1A 8039   8.989   6.194   6.412  0.0650 -0.2372  0.3005
  655DLPE   D2A 8040   9.049   6.483   5.999 -0.2427 -0.0063 -0.0586
  655DLPE   D3A 8041   8.946   6.795   5.657  0.1260  0.2243 -0.0601
  655DLPE   C4A 8042   9.201   6.625   5.262  0.2840  0.1506 -0.0239
  655DLPE   C1B 8043   8.661   6.594   6.457  0.1018  0.0723 -0.0318
  655DLPE   D2B 8044   8.653   7.092   6.505 -0.1090 -0.4747  0.0438
  655DLPE   D3B 8045   8.670   6.978   6.094 -0.1501  0.0253 -0.0574
  655DLPE   C4B 8046   8.607   7.153   5.672 -0.1246 -0.4042  0.0081
  656DLPE   NH3 8047  14.209   0.166   8.052  0.1133  0.0392 -0.2170
  656DLPE   PO4 8048  14.476   0.303   8.189 -0.2028 -0.0063 -0.0215
  656DLPE   GL1 8049  14.588   0.413   7.757 -0.3604 -0.3368 -0.0066
  656DLPE   GL2 8050  14.672   0.175   7.707 -0.2704 -0.4421 -0.1988
  656DLPE   C1A 8051  14.688   0.574   7.365  0.1123 -0.2031  0.1380
  656DLPE   D2A 8052  14.661   0.540   6.913  0.1970  0.0945 -0.0766
  656DLPE   D3A 8053  14.578   0.675   6.493 -0.5969 -0.2564 -0.1985
  656DLPE   C4A 8054  14.677   0.882   6.072 -0.0773  0.0655 -0.4275
  656DLPE   C1B 8055  15.087   0.216   7.525  0.0203 -0.1632  0.0069
  656DLPE   D2B 8056  15.497   0.283   7.326 -0.0861 -0.2444 -0.2886
  656DLPE   D3B 8057  15.530   0.274   6.849  0.0589  0.1617  0.0883
  656DLPE   C4B 8058  15.663   0.359   6.350 -0.1045  0.3154  0.1523
  657DLPE   NH3 8059  26.469   1.982   7.992 -0.0217 -0.0977  0.1899
  657DLPE   PO4 8060  26.183   2.082   8.197  0.1078  0.0331  0.2218
  657DLPE   GL1 8061  26.146   2.375   7.836  0.2419  0.0234 -0.1208
  657DLPE   GL2 8062  26.364   2.472   7.946 -0.2119 -0.1185 -0.2782
  657DLPE   C1A 8063  25.880   2.678   7.670  0.1572 -0.0802  0.0968
  657DLPE   D2A 8064  25.545   2.665   7.302 -0.4855 -0.4279 -0.1252
  657DLPE   D3A 8065  25.352   2.245   7.169 -0.0273  0.0107 -0.0865
  657DLPE   C4A 8066  25.644   2.364   6.758 -0.1065 -0.0545  0.2393
  657DLPE   C1B 8067  26.604   2.302   7.599  0.2098  0.1572  0.2432
  657DLPE   D2B 8068  26.631   2.195   7.091 -0.2259  0.1704 -0.0579
  657DLPE   D3B 8069  26.570   2.478   6.732  0.1059 -0.3086 -0.1485
  657DLPE   C4B 8070  26.460   2.634   6.279 -0.1211 -0.1754  0.2917
  658DLPE   NH3 8071   7.609  17.392   7.647  0.0851  0.1699  0.0407
  658DLPE   PO4 8072   7.585  17.026   7.607  0.1098  0.2125 -0.2721
  658DLPE   GL1 8073   7.653  16.861   7.237 -0.0820  0.4508 -0.3119
  658DLPE   GL2 8074   7.927  16.875   7.345 -0.1266 -0.2519 -0.0818
  658DLPE   C1A 8075   7.624  16.810   6.818 -0.0274 -0.0025 -0.0760
  658DLPE   D2A 8076   7.791  16.826   6.344  0.0985  0.1138  0.1715
  658DLPE   D3A 8077   7.623  16.434   6.213  0.1788 -0.0229 -0.1208
  658DLPE   C4A 8078   7.370  16.270   6.618  0.1614  0.0214 -0.0674
  658DLPE   C1B 8079   8.069  16.584   7.073 -0.0299 -0.0965 -0.2502
  658DLPE   D2B 8080   8.075  16.398   6.591  0.3648  0.1108  0.1074
  658DLPE   D3B 8081   8.093  16.458   6.137 -0.0712  0.0406  0.1002
  658DLPE   C4B 8082   8.360  16.336   5.716  0.0170  0.1620  0.4106
  659DLPE   NH3 8083  20.737  22.058   7.660  0.2484 -0.1642 -0.2289
  659DLPE   PO4 8084  20.884  22.376   7.746  0.1096  0.1222 -0.0748
  659DLPE   GL1 8085  20.811  22.771   7.506  0.2287 -0.1362 -0.0641
  659DLPE   GL2 8086  21.046  22.719   7.310  0.5571  0.3128 -0.3682
  659DLPE   C1A 8087  20.446  22.877   7.235 -0.1767 -0.1404  0.0491
  659DLPE   D2A 8088  20.232  22.911   6.806  0.0516  0.4162 -0.0335
  659DLPE   D3A 8089  20.463  22.545   6.622 -0.2165 -0.0214 -0.1373
  659DLPE   C4A 8090  20.465  22.612   6.223  0.0288 -0.0454  0.0949
  659DLPE   C1B 8091  20.974  22.971   6.982  0.2334  0.0563  0.0737
  659DLPE   D2B 8092  20.802  22.923   6.489  0.0015 -0.0448 -0.4783
  659DLPE   D3B 8093  20.573  23.137   6.195  0.0512  0.0635  0.1199
  659DLPE   C4B 8094  20.254  23.148   5.799 -0.1631 -0.1246  0.2309
  660DLPE   NH3 8095  12.515  10.963   7.856  0.0229 -0.1779 -0.1977
  660DLPE   PO4 8096  12.183  10.991   7.736 -0.1543 -0.0633  0.1122
  660DLPE   GL1 8097  12.209  11.046   7.338  0.1668  0.1204  0.2303
  660DLPE   GL2 8098  12.175  11.371   7.362 -0.2961  0.1312 -0.2923
  660DLPE   C1A 8099  12.374  10.956   6.960  0.2295  0.4927  0.1541
  660DLPE   D2A 8100  12.410  10.879   6.472  0.1840  0.1930  0.4125
  660DLPE   D3A 8101  12.545  10.736   6.087 -0.1927 -0.0631 -0.2683
  660DLPE   C4A 8102  12.468  10.477   5.699  0.0238  0.0147 -0.0537
  660DLPE   C1B 8103  12.163  11.501   7.030  0.3169 -0.2076 -0.0766
  660DLPE   D2B 8104  12.157  11.502   6.497  0.0911 -0.0789 -0.2813
  660DLPE   D3B 8105  12.133  11.474   6.011  0.1905  0.0554  0.0595
  660DLPE   C4B 8106  12.249  11.844   5.724  0.1994  0.0435  0.0648
  661DLPE   NH3 8107  21.145  16.051   7.213  0.0249  0.0157  0.0110
  661DLPE   PO4 8108  20.873  16.258   7.148 -0.0843  0.0976  0.1133
  661DLPE   GL1 8109  20.792  16.108   6.796  0.1818 -0.1948  0.0397
  661DLPE   GL2 8110  20.563  16.279   6.697 -0.4508  0.1664 -0.1520
  661DLPE   C1A 8111  20.967  16.068   6.396  0.0030  0.1143 -0.1742
  661DLPE   D2A 8112  20.958  16.287   5.918  0.2756  0.1386 -0.2524
  661DLPE   D3A 8113  20.991  16.358   5.513 -0.0001  0.2346  0.0135
  661DLPE   C4A 8114  21.357  16.716   5.313 -0.1157  0.0300 -0.0482
  661DLPE   C1B 8115  20.581  16.416   6.279 -0.0252 -0.1203  0.0319
  661DLPE   D2B 8116  20.424  16.440   5.803 -0.1210  0.1400 -0.3637
  661DLPE   D3B 8117  20.312  16.236   5.414 -0.1824  0.2600  0.0434
  661DLPE   C4B 8118  19.855  16.307   5.393  0.0066  0.2456  0.0019
  662DLPE   NH3 8119   2.215   1.285   7.810 -0.4794  0.0502 -0.1929
  662DLPE   PO4 8120   1.932   1.510   7.735  0.0899 -0.2314  0.0203
  662DLPE   GL1 8121   2.038   1.336   7.329  0.2360  0.2685 -0.0908
  662DLPE   GL2 8122   2.262   1.468   7.426  0.1911 -0.1050  0.0066
  662DLPE   C1A 8123   2.048   1.515   6.992  0.1980 -0.0739 -0.1148
  662DLPE   D2A 8124   2.115   1.488   6.468  0.0404  0.1389  0.1724
  662DLPE   D3A 8125   2.380   1.465   6.083  0.1596  0.2359  0.0339
  662DLPE   C4A 8126   2.908   1.377   6.050  0.1256 -0.1268  0.0270
  662DLPE   C1B 8127   2.566   1.554   7.089  0.2687 -0.2653 -0.3125
  662DLPE   D2B 8128   2.573   1.423   6.661  0.1040 -0.2304  0.4336
  662DLPE   D3B 8129   2.922   1.127   6.701  0.0963 -0.0517  0.0996
  662DLPE   C4B 8130   3.282   1.056   6.433 -0.4101  0.0625 -0.1485
  663DLPE   NH3 8131  14.813  12.277   7.641 -0.2026 -0.3305  0.0861
  663DLPE   PO4 8132  14.763  11.931   7.515  0.0492  0.0586  0.0192
  663DLPE   GL1 8133  14.615  12.082   7.166 -0.0247 -0.1257 -0.2899
  663DLPE   GL2 8134  14.744  12.213   6.989  0.1414 -0.2677 -0.0250
  663DLPE   C1A 8135  14.318  11.754   6.919 -0.2688  0.1465  0.1004
  663DLPE   D2A 8136  14.276  11.826   6.442  0.2542  0.3649 -0.0926
  663DLPE   D3A 8137  14.306  11.623   6.080 -0.0711  0.0747 -0.0290
  663DLPE   C4A 8138  14.412  11.479   5.601  0.0913  0.3087  0.0621
  663DLPE   C1B 8139  14.733  12.086   6.511  0.1769 -0.2444  0.3542
  663DLPE   D2B 8140  14.802  11.858   6.054 -0.0759 -0.0625 -0.2759
  663DLPE   D3B 8141  14.451  11.962   5.786 -0.2348  0.0606 -0.1060
  663DLPE   C4B 8142  13.994  11.810   5.706 -0.2553  0.0379 -0.2510
  664DLPE   NH3 8143   5.597  10.708   7.481  0.1897 -0.1434 -0.0833
  664DLPE   PO4 8144   5.851  10.945   7.624  0.1256  0.1468  0.1369
  664DLPE   GL1 8145   6.105  10.958   7.192  0.0099  0.1251 -0.0110
  664DLPE   GL2 8146   6.217  10.698   7.296  0.2139  0.0483  0.3773
  664DLPE   C1A 8147   5.961  10.743   6.870 -0.0567 -0.0768  0.2533
  664DLPE   D2A 8148   6.059  10.594   6.381  0.1365 -0.0795 -0.0833
  664DLPE   D3A 8149   6.066  10.367   5.906 -0.0716  0.2929 -0.1887
  664DLPE   C4A 8150   5.640  10.273   5.622 -0.0764  0.1876  0.1320
  664DLPE   C1B 8151   6.579  10.739   6.996  0.2105 -0.0297  0.2048
  664DLPE   D2B 8152   6.827  10.558   6.654  0.0966  0.3026  0.2564
  664DLPE   D3B 8153   6.583  10.506   6.315  0.0635 -0.2675  0.0503
  664DLPE   C4B 8154   6.805  10.566   5.943  0.0587  0.1362  0.0009
  665DLPE   NH3 8155  24.960  17.487   8.097 -0.0619  0.0483  0.0319
  665DLPE   PO4 8156  24.759  17.673   7.881 -0.2994  0.1068  0.2553
  665DLPE   GL1 8157  24.725  17.788   7.493 -0.0423  0.0656  0.2896
  665DLPE   GL2 8158  24.973  17.621   7.399  0.0134 -0.0326  0.1500
  665DLPE   C1A 8159  24.462  17.799   7.110 -0.0728 -0.1379 -0.0312
  665DLPE   D2A 8160  24.444  17.635   6.631 -0.3033 -0.1139  0.0517
  665DLPE   D3A 8161  24.267  17.432   6.205  0.1580 -0.1828 -0.1869
  665DLPE   C4A 8162  24.206  17.447   5.722 -0.0909  0.1494  0.0058
  665DLPE   C1B 8163  25.014  17.257   7.144  0.0083 -0.0790 -0.0726
  665DLPE   D2B 8164  25.149  16.998   6.682 -0.0388  0.1384 -0.0224
  665DLPE   D3B 8165  25.447  16.834   6.403 -0.2259 -0.0586  0.3682
  665DLPE   C4B 8166  25.562  17.016   6.002 -0.4142  0.2265  0.1388
  666DLPE   NH3 8167   0.421   4.040   7.754  0.0810 -0.1942 -0.2417
  666DLPE   PO4 8168   0.592   3.748   7.749 -0.4232 -0.1745  0.2122
  666DLPE   GL1 8169   0.704   3.823   7.324  0.2030  0.4236  0.3379
  666DLPE   GL2 8170   0.596   4.059   7.264 -0.2637  0.0110  0.0467
  666DLPE   C1A 8171   1.054   3.603   7.151 -0.1838 -0.0385  0.1010
  666DLPE   D2A 8172   1.237   3.544   6.711 -0.3201  0.0437  0.0224
  666DLPE   D3A 8173   1.310   3.168   6.574 -0.0747  0.1014  0.0698
  666DLPE   C4A 8174   1.020   3.080   6.223 -0.1232  0.1380  0.2059
  666DLPE   C1B 8175   0.569   4.253   6.845  0.0044 -0.0997 -0.1214
  666DLPE   D2B 8176   0.954   4.285   6.574  0.2689 -0.0691  0.2381
  666DLPE   D3B 8177   1.249   4.610   6.681 -0.1838 -0.2641  0.1868
  666DLPE   C4B 8178   1.306   4.934   7.024 -0.0695  0.1565  0.2437
  667DLPE   NH3 8179   6.814  26.050   8.050 -0.1857 -0.2687  0.1174
  667DLPE   PO4 8180   6.605  26.014   7.780  0.1922  0.0392  0.1185
  667DLPE   GL1 8181   6.671  25.968   7.400  0.0303 -0.0228 -0.1038
  667DLPE   GL2 8182   6.457  25.773   7.382 -0.2578  0.2568  0.4351
  667DLPE   C1A 8183   6.948  25.882   7.185  0.0072 -0.0556 -0.2132
  667DLPE   D2A 8184   7.150  25.625   6.823 -0.2149  0.0583  0.0843
  667DLPE   D3A 8185   7.203  25.346   6.504  0.0419 -0.0131 -0.0404
  667DLPE   C4A 8186   6.943  25.157   6.196  0.0760 -0.0886  0.2274
  667DLPE   C1B 8187   6.428  25.957   7.001  0.1149 -0.1450  0.2499
  667DLPE   D2B 8188   6.732  25.922   6.607 -0.1227 -0.0991 -0.1039
  667DLPE   D3B 8189   6.836  25.628   6.269  0.0106 -0.1250  0.1864
  667DLPE   C4B 8190   6.595  25.370   5.947  0.3573 -0.0045  0.1594
  668DLPE   NH3 8191  11.880  19.806   7.951 -0.0826 -0.2049 -0.2372
  668DLPE   PO4 8192  11.654  19.741   7.704  0.0676 -0.0317  0.0890
  668DLPE   GL1 8193  11.738  19.464   7.377  0.0092  0.0041  0.1344
  668DLPE   GL2 8194  11.457  19.345   7.355 -0.1140  0.1915  0.0372
  668DLPE   C1A 8195  11.601  19.607   6.893 -0.4139  0.1223 -0.2057
  668DLPE   D2A 8196  11.653  20.092   6.743 -0.0894  0.2396  0.0772
  668DLPE   D3A 8197  11.425  20.363   6.388 -0.4035  0.2579  0.0400
  668DLPE   C4A 8198  11.134  20.126   6.151 -0.0077 -0.1669  0.0942
  668DLPE   C1B 8199  11.126  19.523   7.137 -0.4413 -0.1062 -0.0573
  668DLPE   D2B 8200  10.766  19.533   6.792 -0.2513 -0.0566  0.1392
  668DLPE   D3B 8201  10.877  19.734   6.376  0.0176  0.1115  0.0613
  668DLPE   C4B 8202  10.930  19.711   5.907  0.2813  0.1324 -0.3217
  669DLPE   NH3 8203   9.795  27.480   7.246 -0.1693 -0.0796 -0.0945
  669DLPE   PO4 8204   9.930  27.249   7.480 -0.3415 -0.0900 -0.1260
  669DLPE   GL1 8205   9.987  27.127   7.052  0.0173  0.3866  0.1021
  669DLPE   GL2 8206   9.894  26.827   7.126 -0.1355  0.2575 -0.1295
  669DLPE   C1A 8207  10.260  27.164   6.726 -0.0510  0.0594  0.0557
  669DLPE   D2A 8208   9.967  27.298   6.302  0.1032  0.1633  0.4154
  669DLPE   D3A 8209  10.133  27.494   5.935  0.1028  0.1896 -0.3039
  669DLPE   C4A 8210  10.431  27.845   5.879 -0.0040 -0.1515  0.0998
  669DLPE   C1B 8211  10.065  26.737   6.706 -0.0308 -0.0535  0.2063
  669DLPE   D2B 8212  10.329  26.937   6.280 -0.4522 -0.2236  0.2012
  669DLPE   D3B 8213  10.463  27.351   6.283 -0.1842  0.0189 -0.0755
  669DLPE   C4B 8214  10.834  27.434   6.047 -0.2208 -0.0458 -0.0572
  670DLPE   NH3 8215  21.824  22.725   7.878 -0.0008  0.1822 -0.0835
  670DLPE   PO4 8216  22.087  22.711   7.606 -0.1205  0.4608  0.3062
  670DLPE   GL1 8217  21.775  22.960   7.385 -0.2363  0.1340  0.5771
  670DLPE   GL2 8218  21.980  23.041   7.211 -0.5711  0.5024  0.3565
  670DLPE   C1A 8219  21.464  22.840   7.107  0.2918 -0.0407  0.1547
  670DLPE   D2A 8220  21.181  22.490   6.821  0.0590 -0.2408 -0.2030
  670DLPE   D3A 8221  20.812  22.277   6.827 -0.0074 -0.1817  0.2180
  670DLPE   C4A 8222  20.466  22.008   6.613  0.1513  0.1732  0.1118
  670DLPE   C1B 8223  21.831  23.011   6.724 -0.0847  0.0190 -0.1176
  670DLPE   D2B 8224  21.696  23.150   6.173  0.0308  0.0832 -0.1401
  670DLPE   D3B 8225  21.425  22.929   5.936  0.0428  0.2951 -0.1386
  670DLPE   C4B 8226  21.210  23.026   5.537 -0.0193 -0.2308 -0.1392
  671DLPE   NH3 8227   7.310  27.196   8.088 -0.0550  0.0090 -0.3034
  671DLPE   PO4 8228   7.251  27.040   7.773 -0.0391 -0.0252  0.2886
  671DLPE   GL1 8229   7.544  27.076   7.394 -0.1078  0.0917  0.0176
  671DLPE   GL2 8230   7.302  27.314   7.382 -0.1900 -0.0526 -0.0813
  671DLPE   C1A 8231   7.595  26.893   7.021  0.0480  0.1416 -0.2102
  671DLPE   D2A 8232   7.578  26.389   6.897  0.0370 -0.3914  0.2151
  671DLPE   D3A 8233   7.850  26.110   6.749 -0.1407 -0.3146  0.1041
  671DLPE   C4A 8234   8.041  26.192   6.309 -0.2603 -0.1509  0.1879
  671DLPE   C1B 8235   7.089  27.549   6.995 -0.0889  0.1701 -0.0662
  671DLPE   D2B 8236   6.915  27.348   6.543  0.1241  0.0614  0.1402
  671DLPE   D3B 8237   6.909  27.222   6.105 -0.0383 -0.0325 -0.1538
  671DLPE   C4B 8238   7.131  26.762   5.998 -0.1059  0.0971 -0.2250
  672DLPE   NH3 8239  24.180  14.725   7.262  0.1355  0.0839  0.0417
  672DLPE   PO4 8240  23.881  14.765   7.400  0.1648  0.1005  0.1321
  672DLPE   GL1 8241  23.692  14.686   7.068  0.0353 -0.2227  0.1138
  672DLPE   GL2 8242  23.851  14.873   6.902  0.3542 -0.1827 -0.6046
  672DLPE   C1A 8243  23.416  14.426   6.823  0.4276 -0.2155  0.1221
  672DLPE   D2A 8244  23.146  14.278   6.460  0.0785 -0.0865  0.1496
  672DLPE   D3A 8245  23.270  14.571   6.022  0.1424  0.3648 -0.0079
  672DLPE   C4A 8246  23.012  14.762   5.691  0.3339 -0.2500 -0.1489
  672DLPE   C1B 8247  24.064  15.259   6.721  0.2655  0.5058  0.0876
  672DLPE   D2B 8248  24.277  15.424   6.371 -0.1516 -0.1870 -0.0271
  672DLPE   D3B 8249  24.361  15.562   5.933 -0.0268 -0.0704  0.0913
  672DLPE   C4B 8250  24.520  15.547   5.499 -0.0001  0.0388 -0.0428
  673DLPE   NH3 8251  19.043   4.602   6.978  0.4294 -0.1185 -0.1700
  673DLPE   PO4 8252  18.772   4.823   6.880 -0.0346 -0.0917  0.1004
  673DLPE   GL1 8253  18.732   4.680   6.537  0.3675 -0.1309 -0.1194
  673DLPE   GL2 8254  18.876   4.460   6.465 -0.0022  0.2378  0.1098
  673DLPE   C1A 8255  18.409   4.793   6.208 -0.1752 -0.0780 -0.0680
  673DLPE   D2A 8256  18.028   4.586   5.904 -0.1977 -0.1980 -0.0677
  673DLPE   D3A 8257  18.358   4.409   5.636  0.2611 -0.1922 -0.1243
  673DLPE   C4A 8258  18.281   3.929   5.548  0.0483 -0.1987  0.2080
  673DLPE   C1B 8259  18.776   4.457   6.059 -0.0286  0.1357 -0.1367
  673DLPE   D2B 8260  18.903   4.364   5.637 -0.1179  0.0030 -0.2740
  673DLPE   D3B 8261  18.692   4.147   5.315 -0.2325  0.2619  0.0439
  673DLPE   C4B 8262  18.923   4.375   4.949 -0.2180  0.1915  0.2299
  674DLPE   NH3 8263  20.178  12.899   7.145 -0.2264 -0.3172  0.1651
  674DLPE   PO4 8264  20.071  12.653   7.333  0.0442 -0.0757  0.2472
  674DLPE   GL1 8265  20.141  12.412   7.037 -0.1937  0.5382  0.1167
  674DLPE   GL2 8266  20.163  12.609   6.836 -0.2217  0.1278  0.5836
  674DLPE   C1A 8267  19.753  12.217   6.772  0.0778 -0.3164  0.0878
  674DLPE   D2A 8268  19.552  11.846   6.516 -0.1989 -0.0098 -0.4639
  674DLPE   D3A 8269  19.311  11.772   6.201 -0.0770  0.1225  0.0740
  674DLPE   C4A 8270  18.978  11.704   5.920  0.5731  0.3925  0.0248
  674DLPE   C1B 8271  19.969  12.774   6.509  0.2370  0.0900 -0.1438
  674DLPE   D2B 8272  20.367  12.655   6.210  0.0691 -0.1777  0.1051
  674DLPE   D3B 8273  20.128  12.352   5.930  0.3322 -0.0340 -0.1912
  674DLPE   C4B 8274  19.734  12.008   5.993 -0.0993 -0.0105  0.0241
  675DLPE   NH3 8275   7.151  25.110   8.336 -0.0728 -0.3013  0.1377
  675DLPE   PO4 8276   7.258  25.218   8.044  0.1761 -0.2838 -0.0974
  675DLPE   GL1 8277   7.139  25.235   7.639  0.1846 -0.1778 -0.1120
  675DLPE   GL2 8278   7.191  24.933   7.677  0.0710  0.0790 -0.1568
  675DLPE   C1A 8279   7.159  25.383   7.278 -0.5185  0.0746 -0.1113
  675DLPE   D2A 8280   6.906  25.059   7.001 -0.0064 -0.1588  0.0026
  675DLPE   D3A 8281   6.842  24.778   6.655 -0.1519 -0.0951  0.0341
  675DLPE   C4A 8282   6.692  24.694   6.206 -0.2565 -0.3316 -0.0652
  675DLPE   C1B 8283   7.331  24.724   7.278  0.0824  0.1488  0.0732
  675DLPE   D2B 8284   7.522  24.550   6.853  0.2952 -0.0389  0.2078
  675DLPE   D3B 8285   7.901  24.369   7.060  0.3238 -0.1822 -0.0918
  675DLPE   C4B 8286   7.604  24.363   7.375  0.0542  0.3169 -0.0668
  676DLPE   NH3 8287  24.573  14.002   7.560 -0.2670 -0.2978 -0.1848
  676DLPE   PO4 8288  24.298  13.974   7.385 -0.2441  0.3924  0.3326
  676DLPE   GL1 8289  24.325  14.182   7.068 -0.2828  0.2200 -0.1575
  676DLPE   GL2 8290  24.066  14.326   7.164  0.4053  0.2515  0.0777
  676DLPE   C1A 8291  24.397  14.201   6.643 -0.4613  0.2936 -0.2023
  676DLPE   D2A 8292  24.374  14.116   6.137 -0.1697  0.0474  0.2558
  676DLPE   D3A 8293  23.927  13.950   5.911  0.1987 -0.0640 -0.0956
  676DLPE   C4A 8294  23.930  13.777   5.534 -0.1732 -0.0742  0.0728
  676DLPE   C1B 8295  24.008  14.527   6.702  0.0885 -0.1366 -0.3734
  676DLPE   D2B 8296  23.984  14.903   6.367 -0.2333 -0.2055  0.1180
  676DLPE   D3B 8297  24.313  14.842   6.100 -0.0700 -0.0259  0.2056
  676DLPE   C4B 8298  24.538  14.602   5.872 -0.1738 -0.0091 -0.0229
  677DLPE   NH3 8299   6.445   2.552   7.987  0.3089  0.0786  0.1150
  677DLPE   PO4 8300   6.291   2.752   7.739 -0.0082  0.0894 -0.2062
  677DLPE   GL1 8301   6.031   2.590   7.542  0.3359 -0.0228  0.2900
  677DLPE   GL2 8302   6.068   2.617   7.262 -0.1363 -0.1518  0.1505
  677DLPE   C1A 8303   5.688   2.338   7.531 -0.2004  0.1669  0.3476
  677DLPE   D2A 8304   5.257   2.334   7.367 -0.3158 -0.3045 -0.1804
  677DLPE   D3A 8305   4.826   2.404   7.222  0.0561  0.0015  0.1562
  677DLPE   C4A 8306   4.783   2.483   6.761  0.0012 -0.1719 -0.1894
  677DLPE   C1B 8307   5.861   2.398   6.919  0.0732  0.0449  0.1194
  677DLPE   D2B 8308   5.837   2.376   6.433 -0.0693 -0.0454  0.1742
  677DLPE   D3B 8309   5.735   2.558   5.972 -0.0001  0.0585 -0.3930
  677DLPE   C4B 8310   5.962   2.947   6.234 -0.2143 -0.0128 -0.3651
  678DLPE   NH3 8311  25.347  10.256   7.731 -0.0018 -0.2396  0.0241
  678DLPE   PO4 8312  25.058  10.080   7.694  0.0492 -0.0475  0.2866
  678DLPE   GL1 8313  25.269  10.027   7.343  0.4014 -0.0443 -0.0837
  678DLPE   GL2 8314  25.164   9.767   7.256 -0.2785  0.2415  0.1082
  678DLPE   C1A 8315  25.663  10.058   7.216 -0.1053 -0.0592  0.1978
  678DLPE   D2A 8316  25.978  10.345   7.026  0.1174 -0.0053 -0.0259
  678DLPE   D3A 8317  25.966  10.588   6.605  0.1623 -0.0214  0.0335
  678DLPE   C4A 8318  25.668  10.750   6.238  0.0408  0.0473  0.0242
  678DLPE   C1B 8319  25.007   9.845   6.921 -0.2781 -0.0387  0.0557
  678DLPE   D2B 8320  24.572   9.578   6.886  0.1696 -0.0662 -0.0495
  678DLPE   D3B 8321  24.808   9.562   6.563  0.1043  0.1951 -0.2437
  678DLPE   C4B 8322  24.900   9.770   6.252  0.2119 -0.2803  0.0215
  679DLPE   NH3 8323  17.688   5.683   6.993  0.1381 -0.0785 -0.2193
  679DLPE   PO4 8324  17.837   5.942   6.919  0.0242 -0.1791  0.0487
  679DLPE   GL1 8325  18.122   5.826   6.516  0.1637  0.2215  0.2701
  679DLPE   GL2 8326  17.870   5.613   6.553 -0.3448 -0.2848 -0.3993
  679DLPE   C1A 8327  18.115   6.073   6.150 -0.3175 -0.2216 -0.1043
  679DLPE   D2A 8328  18.033   6.120   5.723 -0.4961 -0.0744 -0.1372
  679DLPE   D3A 8329  17.967   6.213   5.376  0.0290 -0.0902 -0.3737
  679DLPE   C4A 8330  17.750   6.436   5.048 -0.0162  0.2033 -0.3644
  679DLPE   C1B 8331  17.675   5.344   6.271  0.0639 -0.0376  0.1507
  679DLPE   D2B 8332  17.451   5.430   5.900 -0.1811  0.3491 -0.1152
  679DLPE   D3B 8333  17.714   5.543   5.560 -0.3571  0.2587 -0.3064
  679DLPE   C4B 8334  17.679   5.849   5.223 -0.0173 -0.0664  0.4005
  680DLPE   NH3 8335   2.225  24.815   8.098  0.2019 -0.1779 -0.3582
  680DLPE   PO4 8336   2.419  25.059   8.197  0.0168 -0.1422  0.2088
  680DLPE   GL1 8337   2.623  24.975   7.794 -0.0291  0.3460  0.1373
  680DLPE   GL2 8338   2.542  24.714   7.777  0.0749 -0.0926  0.1377
  680DLPE   C1A 8339   2.829  25.074   7.467 -0.0765  0.1023  0.0759
  680DLPE   D2A 8340   2.961  24.956   7.004 -0.1927  0.0269 -0.0160
  680DLPE   D3A 8341   3.007  24.902   6.627 -0.0954  0.1080 -0.1566
  680DLPE   C4A 8342   2.767  24.599   6.326 -0.0842 -0.0674 -0.0733
  680DLPE   C1B 8343   2.511  24.537   7.381 -0.0234 -0.0209  0.2524
  680DLPE   D2B 8344   2.703  24.491   6.852  0.0005 -0.1312  0.4727
  680DLPE   D3B 8345   2.478  24.256   6.528 -0.1416 -0.0445 -0.1592
  680DLPE   C4B 8346   2.268  24.196   6.065 -0.1205  0.0362  0.1936
  681DLPE   NH3 8347   4.103   5.704   7.911  0.1116  0.1128 -0.1018
  681DLPE   PO4 8348   4.095   5.450   7.631 -0.4056  0.0826  0.3491
  681DLPE   GL1 8349   3.929   5.580   7.244 -0.1282 -0.0152 -0.1637
  681DLPE   GL2 8350   3.697   5.720   7.266  0.1076  0.1982 -0.0387
  681DLPE   C1A 8351   3.882   5.319   6.883 -0.1124 -0.2491  0.1138
  681DLPE   D2A 8352   3.592   5.130   6.503  0.0995  0.0318 -0.0917
  681DLPE   D3A 8353   3.800   4.714   6.506  0.3326  0.2093  0.3994
  681DLPE   C4A 8354   3.725   4.394   6.812  0.0048 -0.0793 -0.0237
  681DLPE   C1B 8355   3.627   5.789   6.828 -0.0807 -0.0491 -0.0035
  681DLPE   D2B 8356   3.388   6.138   6.535  0.0058  0.4094  0.0775
  681DLPE   D3B 8357   3.507   5.795   6.232  0.1494 -0.1373  0.1342
  681DLPE   C4B 8358   3.403   5.312   6.085 -0.3061  0.0769 -0.0961
  682DLPE   NH3 8359  20.382   5.315   7.350 -0.0674 -0.2287  0.0376
  682DLPE   PO4 8360  20.043   5.275   7.302  0.2262 -0.2392 -0.1926
  682DLPE   GL1 8361  19.875   5.139   6.937  0.1437  0.4228  0.1475
  682DLPE   GL2 8362  20.135   5.239   6.833 -0.0242  0.1038 -0.3377
  682DLPE   C1A 8363  19.852   5.125   6.477  0.1575 -0.3392  0.1185
  682DLPE   D2A 8364  19.645   5.062   6.120 -0.1643 -0.0036  0.1565
  682DLPE   D3A 8365  19.938   4.942   5.773 -0.1042 -0.0761  0.2713
  682DLPE   C4A 8366  20.146   4.807   5.335  0.1076 -0.3121  0.1482
  682DLPE   C1B 8367  20.189   5.592   6.587  0.1374  0.0877  0.2650
  682DLPE   D2B 8368  20.062   5.627   6.104 -0.1108 -0.0128 -0.2919
  682DLPE   D3B 8369  19.891   5.426   5.769 -0.2529 -0.0712 -0.1592
  682DLPE   C4B 8370  19.571   5.721   5.536  0.1650 -0.0151 -0.0346
  683DLPE   NH3 8371  24.160   9.608   7.132 -0.1487  0.0709 -0.2749
  683DLPE   PO4 8372  24.412   9.777   7.297  0.0301  0.1799 -0.3369
  683DLPE   GL1 8373  24.517  10.004   6.934  0.1412 -0.3562 -0.2091
  683DLPE   GL2 8374  24.241   9.942   6.812 -0.0442  0.2132 -0.0940
  683DLPE   C1A 8375  24.798  10.165   6.594  0.0683 -0.3418 -0.1906
  683DLPE   D2A 8376  24.765  10.503   6.197 -0.0405 -0.0107 -0.6292
  683DLPE   D3A 8377  24.613  10.791   6.501  0.0424 -0.0813 -0.1373
  683DLPE   C4A 8378  24.183  10.817   6.644 -0.2534 -0.3229  0.0649
  683DLPE   C1B 8379  24.326   9.824   6.484  0.0389 -0.1749  0.2140
  683DLPE   D2B 8380  24.506   9.892   6.025  0.2457 -0.0169  0.1451
  683DLPE   D3B 8381  24.663   9.712   5.654 -0.1951  0.1292  0.0864
  683DLPE   C4B 8382  24.766   9.211   5.679  0.1420 -0.0764  0.1169
  684DLPE   NH3 8383   9.964   1.177   7.052 -0.1703 -0.1365  0.0153
  684DLPE   PO4 8384   9.681   1.358   7.117  0.0790  0.1386  0.1629
  684DLPE   GL1 8385   9.457   1.303   6.810  0.0625  0.1174 -0.0286
  684DLPE   GL2 8386   9.720   1.115   6.662 -0.2220 -0.0076  0.2150
  684DLPE   C1A 8387   9.121   0.998   6.654  0.1295  0.0068  0.0083
  684DLPE   D2A 8388   9.136   0.690   6.224  0.2828 -0.0886  0.0643
  684DLPE   D3A 8389   8.924   1.102   6.048 -0.0993  0.1708 -0.4930
  684DLPE   C4A 8390   9.230   1.020   5.640  0.0470  0.0643 -0.2993
  684DLPE   C1B 8391   9.609   0.801   6.486 -0.2265  0.0553  0.1462
  684DLPE   D2B 8392   9.629   0.725   5.989  0.3874 -0.0905  0.1361
  684DLPE   D3B 8393   9.609   0.636   5.473  0.0907  0.1807 -0.1584
  684DLPE   C4B 8394   9.513   0.459   5.073  0.1107  0.3794  0.2681
  685SSM    NC3 8395  20.192  27.562   7.775 -0.1282 -0.1060  0.0738
  685SSM    PO4 8396  20.035  27.240   7.901 -0.1402  0.4005  0.2424
  685SSM    OH1 8397  19.820  27.216   7.620  0.2738 -0.1043  0.0405
  685SSM    AM2 8398  20.006  27.371   7.435 -0.0618 -0.0439  0.0841
  685SSM    T1A 8399  19.644  27.112   7.326  0.4170 -0.0700 -0.0519
  685SSM    C2A 8400  19.582  26.959   6.960  0.0112 -0.2576 -0.1933
  685SSM    C3A 8401  19.582  26.870   6.514  0.1324 -0.3040  0.0535
  685SSM    C4A 8402  19.586  27.060   6.038  0.4416  0.0417 -0.1256
  685SSM    C1B 8403  19.938  27.529   7.155  0.0987 -0.2995 -0.0825
  685SSM    C2B 8404  19.973  27.719   6.688  0.1381  0.0732 -0.0803
  685SSM    C3B 8405  19.848  27.922   6.233  0.0547  0.2456  0.1028
  685SSM    C4B 8406  19.722  28.242   5.895 -0.1581  0.2086 -0.2432
  686SSM    NC3 8407   7.913  14.710   7.695  0.2465  0.1408 -0.1281
  686SSM    PO4 8408   7.762  14.353   7.741  0.2344 -0.0973 -0.0107
  686SSM    OH1 8409   7.854  14.264   7.359 -0.1073  0.2419 -0.0903
  686SSM    AM2 8410   7.838  14.555   7.305 -0.0853 -0.0021  0.0404
  686SSM    T1A 8411   8.093  14.260   7.098  0.2638  0.4137  0.3585
  686SSM    C2A 8412   8.211  14.244   6.717 -0.2720  0.3514 -0.2825
  686SSM    C3A 8413   8.283  14.125   6.234 -0.2207 -0.0556  0.4242
  686SSM    C4A 8414   8.472  14.256   5.858 -0.0535  0.0792  0.0109
  686SSM    C1B 8415   7.961  14.641   6.894 -0.0238  0.0525  0.1367
  686SSM    C2B 8416   8.020  14.700   6.374  0.0847 -0.0351 -0.0774
  686SSM    C3B 8417   8.065  14.524   5.918 -0.0210  0.4676  0.3265
  686SSM    C4B 8418   8.107  14.349   5.462 -0.2108 -0.3358 -0.0895
  687SSM    NC3 8419  16.917   6.592   7.276  0.2204 -0.0530 -0.1838
  687SSM    PO4 8420  17.158   6.307   7.403 -0.1022 -0.1133 -0.1683
  687SSM    OH1 8421  16.986   6.213   7.067  0.0390 -0.1876  0.1007
  687SSM    AM2 8422  17.141   6.435   6.929 -0.2879  0.2918  0.0705
  687SSM    T1A 8423  16.793   6.189   6.812 -0.2797 -0.0732  0.1764
  687SSM    C2A 8424  16.545   6.206   6.511  0.1298 -0.0245 -0.1504
  687SSM    C3A 8425  16.404   6.296   6.057  0.2739  0.1879  0.1880
  687SSM    C4A 8426  16.460   6.328   5.545 -0.3205  0.1977 -0.0046
  687SSM    C1B 8427  17.231   6.441   6.473  0.1604  0.0933  0.0279
  687SSM    C2B 8428  17.143   6.666   5.981  0.0944 -0.0841  0.2042
  687SSM    C3B 8429  17.020   6.811   5.582 -0.1889 -0.2399 -0.0238
  687SSM    C4B 8430  16.886   7.233   5.376 -0.0890  0.2282 -0.1014
  688SSM    NC3 8431   1.820  11.172   7.679  0.0491 -0.1592 -0.0012
  688SSM    PO4 8432   1.699  10.833   7.890  0.0708  0.1868 -0.3208
  688SSM    OH1 8433   1.417  10.733   7.689 -0.3198  0.0470  0.3790
  688SSM    AM2 8434   1.529  10.861   7.440 -0.0962 -0.0244  0.2826
  688SSM    T1A 8435   1.274  10.546   7.416  0.3721  0.2978  0.0760
  688SSM    C2A 8436   0.958  10.461   7.122 -0.3781 -0.2557  0.0681
  688SSM    C3A 8437   0.779  10.439   6.703 -0.1060 -0.0280 -0.0959
  688SSM    C4A 8438   0.741  10.448   6.216 -0.1213  0.1751  0.1413
  688SSM    C1B 8439   1.517  10.726   7.034  0.1092  0.4563 -0.1330
  688SSM    C2B 8440   1.310  10.454   6.652 -0.3345 -0.1745  0.0917
  688SSM    C3B 8441   1.226  10.327   6.151  0.1100  0.0383 -0.4033
  688SSM    C4B 8442   1.177  10.479   5.720 -0.3037  0.3531  0.5722
  689SSM    NC3 8443   0.428  11.409   7.448 -0.1017 -0.0028  0.0292
  689SSM    PO4 8444   0.640  11.651   7.731 -0.1770  0.1342  0.0372
  689SSM    OH1 8445   0.804  11.794   7.442 -0.2473  0.3765  0.1413
  689SSM    AM2 8446   0.550  11.860   7.306  0.7416  0.2359  0.1480
  689SSM    T1A 8447   0.914  11.726   7.125 -0.4611  0.3108  0.1441
  689SSM    C2A 8448   0.969  11.922   6.835  0.2208 -0.6724  0.0415
  689SSM    C3A 8449   0.909  12.027   6.365  0.0272  0.0363  0.0812
  689SSM    C4A 8450   0.908  11.930   5.858 -0.2399  0.3077  0.1305
  689SSM    C1B 8451   0.499  11.977   6.911 -0.0971  0.3370 -0.1357
  689SSM    C2B 8452   0.439  11.912   6.391 -0.0494 -0.1180  0.2226
  689SSM    C3B 8453   0.499  12.389   6.127 -0.4090  0.0283  0.0013
  689SSM    C4B 8454   0.371  12.786   5.865 -0.0045 -0.3235 -0.1021
  690SSM    NC3 8455  21.091   1.697   7.655 -0.2376  0.2335  0.0634
  690SSM    PO4 8456  20.816   1.427   7.800 -0.0270  0.1369  0.2701
  690SSM    OH1 8457  20.644   1.325   7.501  0.1071 -0.1693 -0.1752
  690SSM    AM2 8458  20.720   1.573   7.334  0.1743  0.0880  0.1753
  690SSM    T1A 8459  20.651   1.198   7.172  0.0191  0.0297 -0.2847
  690SSM    C2A 8460  20.589   1.273   6.780  0.2899  0.1798  0.0362
  690SSM    C3A 8461  20.454   1.141   6.349 -0.1562  0.1154 -0.3297
  690SSM    C4A 8462  20.384   1.028   5.849 -0.3044 -0.1038 -0.2940
  690SSM    C1B 8463  20.793   1.708   6.936 -0.3303  0.0353 -0.1562
  690SSM    C2B 8464  20.664   1.655   6.474 -0.0034  0.1273 -0.0325
  690SSM    C3B 8465  20.437   1.710   6.055 -0.1765 -0.2637  0.3817
  690SSM    C4B 8466  19.986   1.699   6.138  0.0680 -0.0240  0.0756
  691SSM    NC3 8467  11.818   5.053   7.622  0.0086  0.0397  0.0962
  691SSM    PO4 8468  11.952   5.429   7.701  0.4062  0.4345  0.0044
  691SSM    OH1 8469  12.187   5.509   7.397  0.2142  0.0995 -0.3107
  691SSM    AM2 8470  12.287   5.755   7.525  0.2519 -0.4300 -0.1142
  691SSM    T1A 8471  12.316   5.607   7.110 -0.1101  0.2183  0.1513
  691SSM    C2A 8472  12.339   5.656   6.739  0.0726  0.1708  0.2384
  691SSM    C3A 8473  12.371   5.680   6.254  0.1620 -0.0444 -0.3761
  691SSM    C4A 8474  12.436   6.040   5.905  0.0974 -0.0071 -0.3967
  691SSM    C1B 8475  12.370   5.982   7.253 -0.1067 -0.1259 -0.1194
  691SSM    C2B 8476  12.485   6.141   6.757  0.3089 -0.0485  0.0755
  691SSM    C3B 8477  12.701   6.162   6.343 -0.1627  0.1548  0.2358
  691SSM    C4B 8478  12.990   6.188   5.948  0.0333  0.0219 -0.1030
  692SSM    NC3 8479  26.138  21.165   7.346  0.0569 -0.0515 -0.1146
  692SSM    PO4 8480  26.329  20.850   7.544  0.2473 -0.1420  0.4288
  692SSM    OH1 8481  26.460  20.642   7.234  0.2282 -0.1510 -0.3689
  692SSM    AM2 8482  26.280  20.825   7.064 -0.0934 -0.2351  0.3469
  692SSM    T1A 8483  26.492  20.497   6.935 -0.1099  0.2785  0.0575
  692SSM    C2A 8484  26.437  20.448   6.501  0.0585  0.0923 -0.3469
  692SSM    C3A 8485  26.528  20.395   6.015 -0.2944  0.0807 -0.0905
  692SSM    C4A 8486  26.269  20.516   5.688 -0.0555  0.2361 -0.1117
  692SSM    C1B 8487  26.196  20.833   6.672  0.1454 -0.1563 -0.0981
  692SSM    C2B 8488  26.091  20.840   6.147  0.0690 -0.0028  0.0349
  692SSM    C3B 8489  25.862  20.771   5.753  0.1371 -0.0997  0.0305
  692SSM    C4B 8490  25.774  20.832   5.288 -0.2137  0.1284  0.0031
  693SSM    NC3 8491  25.506  20.095   7.989  0.0128  0.0002 -0.2778
  693SSM    PO4 8492  25.890  19.960   7.834  0.0586 -0.1719  0.0578
  693SSM    OH1 8493  25.766  19.683   7.588  0.1372 -0.1729  0.1515
  693SSM    AM2 8494  25.837  19.864   7.369 -0.0938  0.2491  0.1023
  693SSM    T1A 8495  25.554  19.573   7.338 -0.1172 -0.0880  0.0893
  693SSM    C2A 8496  25.285  19.509   7.007 -0.2959  0.1070 -0.1057
  693SSM    C3A 8497  25.033  19.209   6.711  0.0713 -0.0257  0.0811
  693SSM    C4A 8498  24.744  18.933   6.410  0.0217 -0.0649  0.0061
  693SSM    C1B 8499  26.088  19.907   7.079  0.0109  0.1803 -0.3309
  693SSM    C2B 8500  26.153  19.901   6.541  0.2620  0.2455  0.1598
  693SSM    C3B 8501  26.212  19.908   6.026  0.0632  0.2037  0.2084
  693SSM    C4B 8502  26.134  19.663   5.594 -0.0815 -0.2124 -0.1527
  694SSM    NC3 8503  12.496  22.241   7.223 -0.1605 -0.2049 -0.0885
  694SSM    PO4 8504  12.449  22.549   7.405  0.2066  0.0327 -0.0002
  694SSM    OH1 8505  12.422  22.863   7.158 -0.1086 -0.1849 -0.0098
  694SSM    AM2 8506  12.601  22.698   6.956 -0.0334 -0.0019 -0.3393
  694SSM    T1A 8507  12.268  23.128   6.953  0.2144 -0.4932  0.0826
  694SSM    C2A 8508  12.233  23.190   6.587  0.3181 -0.2101  0.0957
  694SSM    C3A 8509  12.073  23.175   6.118 -0.2252  0.2979  0.0741
  694SSM    C4A 8510  11.883  23.113   5.675 -0.1278  0.1183  0.1344
  694SSM    C1B 8511  12.769  22.695   6.647 -0.3071 -0.3865 -0.2000
  694SSM    C2B 8512  12.904  22.675   6.132 -0.4359  0.1718  0.6019
  694SSM    C3B 8513  13.036  22.604   5.677  0.0815 -0.4350 -0.2710
  694SSM    C4B 8514  12.850  22.503   5.211 -0.0187 -0.1306  0.2267
  695SSM    NC3 8515  15.368  20.891   7.951 -0.0536 -0.1214  0.3351
  695SSM    PO4 8516  15.261  20.557   7.956 -0.1080 -0.1139 -0.0419
  695SSM    OH1 8517  15.282  20.508   7.611 -0.0886  0.1107  0.1971
  695SSM    AM2 8518  15.530  20.646   7.549 -0.0776  0.1996 -0.7216
  695SSM    T1A 8519  15.260  20.445   7.267  0.1996 -0.1105 -0.0761
  695SSM    C2A 8520  15.254  20.283   6.900 -0.0435  0.0819  0.0848
  695SSM    C3A 8521  15.209  20.133   6.423 -0.1970 -0.0023  0.0364
  695SSM    C4A 8522  15.440  20.436   6.105  0.3071 -0.1292  0.1287
  695SSM    C1B 8523  15.841  20.866   7.423 -0.0681 -0.3275 -0.3423
  695SSM    C2B 8524  15.811  21.387   7.305 -0.2340 -0.1659 -0.0747
  695SSM    C3B 8525  15.811  21.856   7.170 -0.0379  0.2924  0.1248
  695SSM    C4B 8526  16.047  22.229   6.895  0.0954  0.0636  0.0361
  696SSM    NC3 8527  13.706   1.549   8.241  0.2028 -0.1382  0.1585
  696SSM    PO4 8528  14.099   1.512   8.136 -0.0128 -0.1797 -0.1266
  696SSM    OH1 8529  14.242   1.519   7.822  0.2840  0.1392 -0.0867
  696SSM    AM2 8530  14.077   1.773   7.725  0.1361 -0.3429 -0.0848
  696SSM    T1A 8531  14.271   1.452   7.495  0.0232 -0.3117  0.0171
  696SSM    C2A 8532  14.282   1.454   7.150  0.0861 -0.1589 -0.1393
  696SSM    C3A 8533  14.375   1.615   6.702 -0.1425 -0.1493 -0.2253
  696SSM    C4A 8534  14.389   1.835   6.238  0.1508 -0.0201 -0.0750
  696SSM    C1B 8535  13.882   1.972   7.480 -0.0225 -0.0704  0.4229
  696SSM    C2B 8536  13.977   1.984   7.036  0.1398 -0.0764  0.0821
  696SSM    C3B 8537  14.170   2.141   6.612  0.1703  0.0948 -0.2028
  696SSM    C4B 8538  14.186   2.353   6.186 -0.0577  0.0420 -0.0412
  697SSM    NC3 8539  11.377  24.994   7.817  0.0980 -0.1185  0.1196
  697SSM    PO4 8540  11.659  24.964   7.578  0.1163  0.0696  0.2859
  697SSM    OH1 8541  11.821  25.178   7.302 -0.3306 -0.0334  0.2457
  697SSM    AM2 8542  11.937  24.918   7.193 -0.0899  0.3672 -0.3216
  697SSM    T1A 8543  11.943  25.291   7.005  0.3135  0.0981  0.4674
  697SSM    C2A 8544  12.067  25.330   6.614  0.0967  0.1677 -0.0880
  697SSM    C3A 8545  12.118  25.137   6.180 -0.0398  0.1296 -0.2031
  697SSM    C4A 8546  12.282  24.912   5.783  0.0092  0.5458 -0.2886
  697SSM    C1B 8547  11.933  24.859   6.823 -0.4871  0.2945  0.4523
  697SSM    C2B 8548  11.876  24.779   6.300  0.0007  0.2418 -0.0808
  697SSM    C3B 8549  11.548  24.922   5.976 -0.1049  0.0432 -0.4274
  697SSM    C4B 8550  11.558  25.094   5.484  0.0192 -0.1438  0.1484
  698SSM    NC3 8551  17.620   3.300   7.150 -0.1544 -0.1137 -0.0657
  698SSM    PO4 8552  17.984   3.380   7.347  0.1406  0.2469 -0.2227
  698SSM    OH1 8553  18.221   3.206   7.152 -0.1303  0.0488  0.1043
  698SSM    AM2 8554  18.043   3.249   6.919 -0.0394 -0.3751  0.1588
  698SSM    T1A 8555  18.359   2.955   6.986  0.2643  0.0078  0.2242
  698SSM    C2A 8556  18.291   2.879   6.615 -0.0997  0.2927 -0.4549
  698SSM    C3A 8557  18.028   2.732   6.245  0.0719  0.2283 -0.0690
  698SSM    C4A 8558  17.685   2.509   6.009  0.0702 -0.4998 -0.2941
  698SSM    C1B 8559  17.901   3.252   6.553 -0.2054 -0.2447 -0.2753
  698SSM    C2B 8560  17.766   3.279   6.084 -0.0204  0.1224 -0.0519
  698SSM    C3B 8561  17.701   3.241   5.602 -0.1280 -0.3637  0.3230
  698SSM    C4B 8562  17.723   3.177   5.087  0.2614  0.3071 -0.0804
  699SSM    NC3 8563   3.208  25.613   8.613 -0.1641 -0.1092  0.4254
  699SSM    PO4 8564   3.183  25.480   8.208  0.1634 -0.2035  0.2808
  699SSM    OH1 8565   2.992  25.605   7.887 -0.1792 -0.1104  0.2173
  699SSM    AM2 8566   3.235  25.754   7.786  0.0338  0.0071 -0.1941
  699SSM    T1A 8567   2.914  25.502   7.547  0.3443 -0.1229 -0.0602
  699SSM    C2A 8568   2.848  25.503   7.146 -0.1282  0.1504  0.2539
  699SSM    C3A 8569   2.869  25.401   6.739  0.3821 -0.0415 -0.1058
  699SSM    C4A 8570   3.069  25.256   6.287 -0.1121  0.1297 -0.0902
  699SSM    C1B 8571   3.402  26.039   7.560 -0.0241 -0.1732 -0.0993
  699SSM    C2B 8572   3.434  26.185   7.067  0.0322  0.0724  0.1596
  699SSM    C3B 8573   3.554  26.421   6.649  0.3670  0.1505 -0.0034
  699SSM    C4B 8574   3.413  26.504   6.161 -0.1174 -0.1664  0.2305
  700SSM    NC3 8575   9.769  21.915   7.833  0.0215  0.0608 -0.1804
  700SSM    PO4 8576   9.800  22.258   7.595  0.0658  0.2884  0.1034
  700SSM    OH1 8577   9.561  22.320   7.333 -0.0210  0.0469 -0.2185
  700SSM    AM2 8578   9.641  22.611   7.307  0.1085  0.1654  0.0872
  700SSM    T1A 8579   9.398  22.348   7.034 -0.2607 -0.1606  0.3069
  700SSM    C2A 8580   9.337  22.393   6.624 -0.0404  0.0435 -0.1278
  700SSM    C3A 8581   9.247  22.518   6.207  0.0645  0.3169 -0.2692
  700SSM    C4A 8582   9.221  22.595   5.669 -0.0215  0.2097 -0.0150
  700SSM    C1B 8583   9.785  22.856   7.079  0.1627 -0.2109 -0.1595
  700SSM    C2B 8584   9.924  23.017   6.638  0.0128  0.0542  0.0420
  700SSM    C3B 8585  10.094  22.938   6.212 -0.1645  0.1998  0.2802
  700SSM    C4B 8586  10.196  22.835   5.781  0.1129 -0.0779  0.3436
  701SSM    NC3 8587  10.437  23.057   7.501  0.1485  0.0037 -0.0381
  701SSM    PO4 8588  10.541  22.756   7.727  0.0333 -0.0653 -0.0851
  701SSM    OH1 8589  10.806  22.611   7.520  0.1273 -0.1076 -0.4205
  701SSM    AM2 8590  10.622  22.648   7.274  0.0485  0.2280  0.2951
  701SSM    T1A 8591  10.980  22.434   7.306 -0.1235  0.0840  0.2842
  701SSM    C2A 8592  11.207  22.212   7.064 -0.0366  0.3525  0.0622
  701SSM    C3A 8593  11.245  22.061   6.601 -0.0412 -0.0664 -0.0503
  701SSM    C4A 8594  11.343  21.916   6.147  0.0051  0.3168 -0.2481
  701SSM    C1B 8595  10.331  22.718   6.953  0.0355 -0.1344  0.4061
  701SSM    C2B 8596  10.315  22.572   6.471  0.0920  0.1295  0.3055
  701SSM    C3B 8597  10.395  22.480   6.029  0.0971 -0.1404 -0.2013
  701SSM    C4B 8598  10.173  22.333   5.662  0.0229 -0.2184 -0.0779
  702SSM    NC3 8599  21.708  25.016   7.759  0.0876 -0.0991  0.3047
  702SSM    PO4 8600  21.529  24.802   7.443 -0.0774  0.3461 -0.0569
  702SSM    OH1 8601  21.584  24.521   7.246  0.3860  0.1332 -0.1289
  702SSM    AM2 8602  21.617  24.699   7.000  0.2371  0.1450  0.1042
  702SSM    T1A 8603  21.461  24.298   7.011 -0.0631 -0.2617 -0.1163
  702SSM    C2A 8604  21.313  24.120   6.633 -0.0580 -0.0997  0.0168
  702SSM    C3A 8605  21.261  24.074   6.185  0.0549  0.0978  0.0300
  702SSM    C4A 8606  21.256  23.977   5.692 -0.0509  0.3891 -0.1019
  702SSM    C1B 8607  21.543  24.705   6.633  0.0615 -0.3157 -0.1015
  702SSM    C2B 8608  21.529  24.540   6.188 -0.3186 -0.0853 -0.2097
  702SSM    C3B 8609  21.585  24.458   5.718  0.3440 -0.4102  0.0524
  702SSM    C4B 8610  21.532  24.385   5.241 -0.0040 -0.1062 -0.1646
  703SSM    NC3 8611  18.491   9.988   7.543  0.3921  0.2068 -0.0393
  703SSM    PO4 8612  18.507   9.655   7.293  0.4675  0.1872  0.0545
  703SSM    OH1 8613  18.430   9.592   6.936 -0.3019 -0.0559  0.2599
  703SSM    AM2 8614  18.686   9.455   6.910 -0.0718  0.1088  0.0348
  703SSM    T1A 8615  18.435   9.660   6.599  0.0560 -0.1381  0.0861
  703SSM    C2A 8616  18.319   9.707   6.200 -0.0988 -0.1177  0.4630
  703SSM    C3A 8617  18.354   9.976   5.735 -0.2703 -0.0414 -0.0777
  703SSM    C4A 8618  18.290  10.286   5.312 -0.0234 -0.1082  0.1114
  703SSM    C1B 8619  18.896   9.395   6.599 -0.0178 -0.2649  0.1715
  703SSM    C2B 8620  19.096   9.502   6.127  0.2542 -0.2910  0.1103
  703SSM    C3B 8621  19.143   9.321   5.673 -0.2317  0.2940  0.1443
  703SSM    C4B 8622  19.178   9.430   5.248 -0.0783 -0.3336  0.2091
  704SSM    NC3 8623   6.127  23.666   8.252 -0.0595  0.0533  0.3959
  704SSM    PO4 8624   5.818  23.502   8.344  0.0070  0.4059  0.1308
  704SSM    OH1 8625   5.547  23.592   8.088  0.3085 -0.1468  0.1790
  704SSM    AM2 8626   5.752  23.725   7.901  0.0413  0.2902 -0.0276
  704SSM    T1A 8627   5.267  23.757   7.926  0.0350 -0.0599 -0.1808
  704SSM    C2A 8628   5.160  23.892   7.573  0.1362  0.2621  0.2341
  704SSM    C3A 8629   4.752  24.025   7.211 -0.4824  0.2786  0.0858
  704SSM    C4A 8630   4.554  24.237   6.837  0.1879 -0.2090 -0.0878
  704SSM    C1B 8631   5.992  23.633   7.632 -0.1035  0.1544  0.4202
  704SSM    C2B 8632   6.215  23.736   7.154 -0.1371 -0.0035 -0.0945
  704SSM    C3B 8633   6.095  23.839   6.705 -0.0894 -0.1850 -0.0108
  704SSM    C4B 8634   6.299  23.686   6.284  0.0804  0.0034  0.0967
  705SSM    NC3 8635   4.010  24.067   8.030  0.1588 -0.1078  0.1376
  705SSM    PO4 8636   4.147  23.898   7.695  0.0665  0.2439  0.3452
  705SSM    OH1 8637   4.290  24.130   7.442  0.4381  0.0949  0.2908
  705SSM    AM2 8638   4.108  24.028   7.218 -0.1670  0.2228 -0.0051
  705SSM    T1A 8639   4.449  24.418   7.318  0.1301 -0.1646 -0.2492
  705SSM    C2A 8640   4.737  24.622   7.066  0.0427  0.0470 -0.0329
  705SSM    C3A 8641   4.935  24.659   6.645 -0.3167 -0.1315  0.0153
  705SSM    C4A 8642   5.119  24.766   6.140  0.1698 -0.0965  0.0857
  705SSM    C1B 8643   4.162  24.002   6.838 -0.0730 -0.2439 -0.4200
  705SSM    C2B 8644   4.366  23.972   6.424  0.1457 -0.0253  0.1198
  705SSM    C3B 8645   4.569  23.833   5.982 -0.3233  0.0193 -0.1719
  705SSM    C4B 8646   4.467  23.789   5.498  0.1367 -0.0222 -0.2874
  706SSM    NC3 8647  20.286   9.031   7.686  0.1519 -0.3168 -0.1550
  706SSM    PO4 8648  20.177   9.166   7.346 -0.1202 -0.0142 -0.3107
  706SSM    OH1 8649  20.369   9.148   7.006  0.2756 -0.3079  0.1756
  706SSM    AM2 8650  20.233   8.879   6.966  0.2766 -0.2264  0.0218
  706SSM    T1A 8651  20.508   9.063   6.696 -0.0538 -0.3161  0.1955
  706SSM    C2A 8652  20.458   9.001   6.318  0.1185  0.0106  0.1176
  706SSM    C3A 8653  20.517   8.887   5.872  0.1390 -0.0232 -0.1147
  706SSM    C4A 8654  20.594   9.182   5.462 -0.2382  0.0241  0.1824
  706SSM    C1B 8655  20.070   8.761   6.683 -0.0564  0.1280  0.3929
  706SSM    C2B 8656  19.950   8.843   6.170 -0.1017  0.2783  0.3699
  706SSM    C3B 8657  20.003   8.954   5.696 -0.4165  0.1360 -0.0510
  706SSM    C4B 8658  19.994   9.004   5.178 -0.2308 -0.2485  0.0577
  707SSM    NC3 8659   7.840   2.696   7.335 -0.2850  0.0430 -0.3041
  707SSM    PO4 8660   7.626   2.379   7.306 -0.2188 -0.3818 -0.3490
  707SSM    OH1 8661   7.610   2.404   6.960  0.3887  0.1109 -0.1067
  707SSM    AM2 8662   7.865   2.524   6.899 -0.1995 -0.0030 -0.4279
  707SSM    T1A 8663   7.495   2.514   6.660  0.1929 -0.0699 -0.1381
  707SSM    C2A 8664   7.530   2.709   6.343  0.0617 -0.1170  0.4474
  707SSM    C3A 8665   7.349   2.909   5.927 -0.2481 -0.1266 -0.2232
  707SSM    C4A 8666   7.376   3.149   5.518  0.1230 -0.1535  0.2162
  707SSM    C1B 8667   7.947   2.794   6.627 -0.1137 -0.1790 -0.0380
  707SSM    C2B 8668   7.954   3.000   6.179 -0.0091 -0.2031  0.0484
  707SSM    C3B 8669   7.860   3.072   5.697  0.2610  0.0352  0.0647
  707SSM    C4B 8670   7.874   3.431   5.359  0.0175  0.1008  0.1341
  708SSM    NC3 8671   5.447  19.934   8.045  0.2014  0.0968  0.2918
  708SSM    PO4 8672   5.508  19.554   7.852  0.0490 -0.0454 -0.0383
  708SSM    OH1 8673   5.341  19.602   7.503 -0.2311 -0.0846  0.0546
  708SSM    AM2 8674   5.471  19.874   7.454  0.1488  0.1504  0.1493
  708SSM    T1A 8675   5.380  19.515   7.171 -0.0224  0.1315  0.1062
  708SSM    C2A 8676   5.371  19.377   6.818  0.2996 -0.0218  0.2512
  708SSM    C3A 8677   5.423  19.221   6.379  0.0745 -0.0744  0.2958
  708SSM    C4A 8678   5.543  19.208   5.896 -0.1809 -0.0011  0.3397
  708SSM    C1B 8679   5.593  20.184   7.213  0.1038  0.1251  0.1382
  708SSM    C2B 8680   5.407  20.347   6.721 -0.0095  0.2054  0.0904
  708SSM    C3B 8681   5.374  20.314   6.231 -0.1940 -0.0717 -0.1702
  708SSM    C4B 8682   4.990  20.492   6.025  0.1117 -0.1765 -0.1300
  709SSM    NC3 8683   6.540  21.994   8.484 -0.0142  0.1300 -0.1023
  709SSM    PO4 8684   6.699  21.994   8.069 -0.0120  0.0065 -0.0896
  709SSM    OH1 8685   6.693  22.047   7.709 -0.0679  0.0327 -0.0470
  709SSM    AM2 8686   6.646  22.349   7.727  0.0717  0.4499  0.6763
  709SSM    T1A 8687   6.747  22.105   7.373 -0.2107  0.0728  0.2832
  709SSM    C2A 8688   6.786  22.389   7.070  0.1195  0.0673 -0.5061
  709SSM    C3A 8689   6.902  22.455   6.645  0.2115  0.0884  0.1519
  709SSM    C4A 8690   7.104  22.772   6.375  0.0257 -0.0998  0.2574
  709SSM    C1B 8691   6.671  22.684   7.526  0.2887 -0.0077 -0.0058
  709SSM    C2B 8692   6.737  22.839   7.098  0.0236  0.2613 -0.1930
  709SSM    C3B 8693   6.739  23.007   6.651 -0.1219  0.1929  0.1612
  709SSM    C4B 8694   6.546  23.075   6.261 -0.2418 -0.1609 -0.4876
  710SSM    NC3 8695  13.953  23.036   7.604 -0.1726 -0.5605  0.0687
  710SSM    PO4 8696  14.334  22.927   7.617  0.0218 -0.1092  0.0573
  710SSM    OH1 8697  14.269  22.900   7.232 -0.0762 -0.0655 -0.1138
  710SSM    AM2 8698  14.462  22.657   7.202 -0.1446 -0.0648  0.0735
  710SSM    T1A 8699  14.262  22.927   6.889 -0.1995 -0.3708  0.1751
  710SSM    C2A 8700  14.400  22.973   6.444 -0.0549  0.1428  0.0425
  710SSM    C3A 8701  14.458  23.063   5.980  0.0596  0.2658  0.1902
  710SSM    C4A 8702  14.235  22.846   5.613 -0.0567 -0.0206  0.0618
  710SSM    C1B 8703  14.654  22.412   6.946  0.1915  0.1115 -0.0062
  710SSM    C2B 8704  14.790  22.196   6.476  0.0287 -0.1153  0.0298
  710SSM    C3B 8705  14.654  21.954   6.070  0.1819  0.1513 -0.0741
  710SSM    C4B 8706  14.716  21.533   5.800 -0.0291 -0.2243  0.0729
  711SSM    NC3 8707   2.222  25.451   8.425 -0.0373 -0.0574 -0.3528
  711SSM    PO4 8708   2.116  25.460   8.032  0.0919 -0.0399 -0.0892
  711SSM    OH1 8709   2.221  25.234   7.734 -0.2471 -0.2487 -0.2133
  711SSM    AM2 8710   2.061  25.391   7.532 -0.2128  0.1247  0.0089
  711SSM    T1A 8711   2.377  25.137   7.428 -0.1787 -0.2044 -0.1603
  711SSM    C2A 8712   2.463  25.051   7.047 -0.1130 -0.0748 -0.0207
  711SSM    C3A 8713   2.497  25.024   6.565 -0.2464  0.0795 -0.1974
  711SSM    C4A 8714   2.589  24.984   6.104 -0.0853 -0.0789 -0.1619
  711SSM    C1B 8715   2.009  25.282   7.182  0.0252  0.1493  0.0712
  711SSM    C2B 8716   2.070  25.195   6.710  0.1532  0.1004  0.1056
  711SSM    C3B 8717   2.146  25.111   6.258  0.0608 -0.1020  0.1342
  711SSM    C4B 8718   2.172  24.979   5.758 -0.0363  0.3136 -0.2260
  712SSM    NC3 8719   1.062  23.619   8.166 -0.1547 -0.0596 -0.0259
  712SSM    PO4 8720   1.218  23.850   7.919 -0.3108  0.1176 -0.1455
  712SSM    OH1 8721   1.087  23.759   7.586  0.0613  0.0028 -0.1293
  712SSM    AM2 8722   0.973  24.050   7.597  0.0704  0.2658 -0.3227
  712SSM    T1A 8723   1.029  23.765   7.257 -0.2454  0.2384 -0.0420
  712SSM    C2A 8724   1.094  23.772   6.870  0.0827 -0.0990 -0.1226
  712SSM    C3A 8725   1.081  23.800   6.311  0.0791  0.1735 -0.1191
  712SSM    C4A 8726   1.249  23.667   5.813  0.1525  0.1424 -0.1473
  712SSM    C1B 8727   0.908  24.286   7.301  0.2159  0.0358 -0.0451
  712SSM    C2B 8728   0.917  24.332   6.753  0.1888  0.0250 -0.1734
  712SSM    C3B 8729   0.895  24.392   6.273  0.2385 -0.1146 -0.0157
  712SSM    C4B 8730   0.831  24.373   5.800 -0.0374 -0.0263 -0.0519
  713SSM    NC3 8731  16.838  21.493   8.324  0.1215 -0.2690 -0.1660
  713SSM    PO4 8732  16.510  21.646   8.237 -0.0720  0.1361 -0.1595
  713SSM    OH1 8733  16.537  21.630   7.852 -0.1920 -0.2671  0.1079
  713SSM    AM2 8734  16.289  21.463   7.813 -0.1784 -0.2316  0.0940
  713SSM    T1A 8735  16.615  21.553   7.531  0.1489 -0.1878 -0.4437
  713SSM    C2A 8736  16.580  21.397   7.151  0.1318 -0.1017  0.0099
  713SSM    C3A 8737  16.637  21.280   6.708 -0.1226  0.1303 -0.1538
  713SSM    C4A 8738  16.670  21.024   6.309  0.2807  0.1210 -0.2511
  713SSM    C1B 8739  16.224  21.179   7.452 -0.3238  0.0344 -0.2703
  713SSM    C2B 8740  16.135  21.271   6.913 -0.2010 -0.0302  0.0982
  713SSM    C3B 8741  16.253  21.241   6.434  0.2401  0.0042  0.3223
  713SSM    C4B 8742  16.424  21.350   5.967  0.0608  0.2494  0.1558
  714SSM    NC3 8743  21.712   3.297   8.133  0.0541  0.0258 -0.1129
  714SSM    PO4 8744  21.556   3.526   7.858 -0.2297 -0.1340  0.0944
  714SSM    OH1 8745  21.497   3.375   7.547  0.1377  0.3365 -0.3767
  714SSM    AM2 8746  21.563   3.620   7.370 -0.1941 -0.0535  0.0052
  714SSM    T1A 8747  21.565   3.175   7.268 -0.2273  0.0049  0.0106
  714SSM    C2A 8748  21.569   3.153   6.874 -0.1545 -0.3085  0.3993
  714SSM    C3A 8749  21.562   3.033   6.422  0.4893 -0.1624  0.1530
  714SSM    C4A 8750  21.510   2.959   5.864  0.1899  0.0449 -0.3099
  714SSM    C1B 8751  21.686   3.711   7.013 -0.0597  0.0365 -0.0777
  714SSM    C2B 8752  21.987   3.809   6.666 -0.1725  0.3431  0.0472
  714SSM    C3B 8753  22.190   4.090   6.361  0.0596 -0.0070 -0.3286
  714SSM    C4B 8754  22.472   4.294   6.003  0.0979  0.0605 -0.0547
  715SSM    NC3 8755  26.773   9.147   7.955  0.3337 -0.0703 -0.0552
  715SSM    PO4 8756  27.103   9.242   8.104  0.0622  0.1497 -0.1561
  715SSM    OH1 8757  27.364   9.084   7.883  0.1640  0.2584 -0.3089
  715SSM    AM2 8758  27.164   9.111   7.655 -0.1501  0.1543  0.0764
  715SSM    T1A 8759  27.623   9.022   7.648 -0.0843  0.1287  0.0054
  715SSM    C2A 8760  27.834   9.026   7.280 -0.2427  0.0735  0.0168
  715SSM    C3A 8761  27.882   9.012   6.834  0.0925  0.0117  0.0220
  715SSM    C4A 8762  28.227   8.963   6.534 -0.0160  0.0939  0.0825
  715SSM    C1B 8763  27.256   9.171   7.271 -0.3750  0.2476 -0.0898
  715SSM    C2B 8764  27.350   9.253   6.759 -0.3004 -0.1205 -0.1983
  715SSM    C3B 8765  27.470   9.246   6.281  0.1050  0.0866 -0.1097
  715SSM    C4B 8766  27.405   8.943   5.863 -0.1146 -0.1926  0.0362
  716SSM    NC3 8767   6.956   2.057   7.550 -0.0836  0.1802  0.2955
  716SSM    PO4 8768   7.122   2.374   7.449 -0.1249 -0.0138 -0.2962
  716SSM    OH1 8769   7.122   2.279   7.099  0.0138 -0.1945  0.3239
  716SSM    AM2 8770   6.827   2.196   7.054  0.1991  0.1395 -0.0776
  716SSM    T1A 8771   7.210   2.250   6.744  0.4163  0.2786 -0.0309
  716SSM    C2A 8772   7.216   2.234   6.366 -0.1912 -0.0582 -0.2081
  716SSM    C3A 8773   7.265   2.058   5.868  0.4869  0.0791  0.3001
  716SSM    C4A 8774   7.697   1.978   5.784  0.3663  0.0047 -0.1490
  716SSM    C1B 8775   6.413   2.234   6.996  0.1126 -0.2988 -0.0752
  716SSM    C2B 8776   5.980   1.935   6.829 -0.3110 -0.1325  0.1354
  716SSM    C3B 8777   5.718   1.801   6.429  0.3114 -0.1038 -0.1084
  716SSM    C4B 8778   5.487   1.550   6.066  0.3597 -0.3098 -0.0987
  717SSM    NC3 8779  19.362  24.635   7.832 -0.1525 -0.2493 -0.0686
  717SSM    PO4 8780  19.677  24.915   7.832  0.1530 -0.2499 -0.0404
  717SSM    OH1 8781  19.844  24.920   7.475 -0.0880  0.0709 -0.3859
  717SSM    AM2 8782  19.637  25.120   7.416 -0.0382 -0.2337 -0.1120
  717SSM    T1A 8783  19.982  24.974   7.170  0.4024  0.0653  0.1148
  717SSM    C2A 8784  20.199  25.060   6.899 -0.0953 -0.0580  0.0367
  717SSM    C3A 8785  20.277  25.213   6.479  0.3301 -0.0383  0.2199
  717SSM    C4A 8786  20.061  25.164   6.026 -0.1555  0.1047 -0.2588
  717SSM    C1B 8787  19.408  25.213   7.078 -0.1833 -0.0387  0.0952
  717SSM    C2B 8788  19.341  25.251   6.553 -0.1285  0.0050  0.0173
  717SSM    C3B 8789  19.135  25.261   6.035  0.1928  0.0652 -0.1342
  717SSM    C4B 8790  19.086  25.224   5.563  0.1231  0.0541 -0.0255
  718SSM    NC3 8791   4.501   0.605   7.937  0.0024 -0.1281  0.1814
  718SSM    PO4 8792   4.378   0.271   7.868 -0.1219 -0.0849  0.1013
  718SSM    OH1 8793   4.569   0.291   7.548 -0.0180 -0.1676 -0.3573
  718SSM    AM2 8794   4.349   0.081   7.461  0.0001  0.1319 -0.3328
  718SSM    T1A 8795   4.637   0.355   7.232  0.3186  0.0532 -0.0285
  718SSM    C2A 8796   4.813   0.325   6.844 -0.0251 -0.1694 -0.0989
  718SSM    C3A 8797   5.153   0.421   6.554 -0.2154 -0.1300 -0.1100
  718SSM    C4A 8798   5.108   0.778   6.175 -0.1071  0.0677  0.1478
  718SSM    C1B 8799   4.288  -0.256   7.288  0.0648  0.0827  0.0925
  718SSM    C2B 8800   4.150  -0.462   6.819  0.1013  0.4694 -0.0455
  718SSM    C3B 8801   3.986  -0.538   6.364 -0.3004 -0.0045  0.2759
  718SSM    C4B 8802   4.049  -0.540   5.851 -0.0724  0.1049  0.1224
  719SSM    NC3 8803  15.096  12.682   7.167 -0.2088  0.0701 -0.5766
  719SSM    PO4 8804  15.144  12.311   7.215 -0.2295  0.2383 -0.1708
  719SSM    OH1 8805  15.163  12.298   6.865  0.1993 -0.4896  0.1546
  719SSM    AM2 8806  15.376  12.524   6.809 -0.1659  0.4371 -0.0650
  719SSM    T1A 8807  15.224  12.273   6.519 -0.4489 -0.2744 -0.1404
  719SSM    C2A 8808  15.270  12.142   6.132 -0.1245 -0.0575 -0.1557
  719SSM    C3A 8809  15.280  12.191   5.681 -0.0804 -0.3073 -0.0607
  719SSM    C4A 8810  15.247  12.446   5.249  0.2843 -0.0283  0.0343
  719SSM    C1B 8811  15.309  12.802   6.567 -0.4110 -0.1930 -0.4391
  719SSM    C2B 8812  15.399  13.045   6.060 -0.0094  0.0780 -0.0679
  719SSM    C3B 8813  15.468  13.259   5.690 -0.0038  0.0781 -0.0779
  719SSM    C4B 8814  15.348  13.550   5.222  0.0501 -0.3090 -0.0669
  720SSM    NC3 8815   3.648  23.245   8.232 -0.1380  0.0709  0.3430
  720SSM    PO4 8816   3.574  23.137   7.851 -0.1411  0.2486  0.0724
  720SSM    OH1 8817   3.373  23.340   7.612 -0.1631  0.3104  0.0734
  720SSM    AM2 8818   3.583  23.338   7.380 -0.0149  0.1459 -0.0402
  720SSM    T1A 8819   3.173  23.318   7.347  0.0012  0.2420 -0.2606
  720SSM    C2A 8820   3.204  23.490   6.974  0.2058 -0.0053 -0.0456
  720SSM    C3A 8821   3.154  23.473   6.481  0.0702  0.1156 -0.1789
  720SSM    C4A 8822   3.271  23.214   6.041 -0.1443 -0.0796 -0.0382
  720SSM    C1B 8823   3.581  23.129   7.060  0.0457  0.1091 -0.1720
  720SSM    C2B 8824   3.517  23.154   6.620  0.0891  0.0433 -0.0592
  720SSM    C3B 8825   3.744  23.257   6.244 -0.0741  0.2002 -0.0032
  720SSM    C4B 8826   4.013  23.036   5.952 -0.0182 -0.1143  0.0500
  721SSM    NC3 8827  23.470   0.017   7.064  0.1747  0.0655  0.0253
  721SSM    PO4 8828  23.353   0.110   7.448 -0.0125 -0.3536 -0.2526
  721SSM    OH1 8829  23.184   0.405   7.355  0.1239 -0.4930 -0.1410
  721SSM    AM2 8830  23.419   0.525   7.206 -0.2933  0.4204  0.0849
  721SSM    T1A 8831  23.018   0.600   7.147 -0.0033 -0.2225  0.1421
  721SSM    C2A 8832  22.874   0.668   6.746  0.0033  0.2308 -0.0458
  721SSM    C3A 8833  22.734   0.713   6.261  0.0958 -0.0138  0.0868
  721SSM    C4A 8834  22.468   0.660   5.727 -0.1420  0.3179 -0.2604
  721SSM    C1B 8835  23.374   0.553   6.836  0.0895  0.1988 -0.0904
  721SSM    C2B 8836  23.238   0.628   6.315 -0.1047  0.2994  0.1035
  721SSM    C3B 8837  23.034   0.598   5.907 -0.1969  0.2287  0.3122
  721SSM    C4B 8838  23.138   0.531   5.478 -0.0062  0.1779 -0.0179
  722SSM    NC3 8839  18.639  27.018   7.905 -0.2000 -0.1921 -0.0741
  722SSM    PO4 8840  18.306  27.186   7.697  0.0692 -0.0020 -0.2391
  722SSM    OH1 8841  18.115  27.090   7.381 -0.0913  0.0651  0.4307
  722SSM    AM2 8842  18.388  26.941   7.283  0.0702 -0.2852  0.2578
  722SSM    T1A 8843  18.078  27.053   7.015 -0.0024  0.0332 -0.2110
  722SSM    C2A 8844  17.982  27.143   6.615  0.0439  0.2056  0.1112
  722SSM    C3A 8845  17.971  27.288   6.165  0.2519 -0.0318 -0.0310
  722SSM    C4A 8846  18.115  27.392   5.636  0.1479 -0.0605  0.1936
  722SSM    C1B 8847  18.647  26.944   6.917  0.1612  0.0605 -0.1264
  722SSM    C2B 8848  18.565  27.015   6.424  0.0308  0.0238  0.3745
  722SSM    C3B 8849  18.532  27.091   5.994  0.1143  0.2173  0.0100
  722SSM    C4B 8850  18.536  27.334   5.586 -0.0623  0.1735 -0.5249
  723SSM    NC3 8851  25.797   6.662   8.133  0.1191 -0.1471  0.0980
  723SSM    PO4 8852  26.081   6.799   7.897 -0.0558 -0.0942  0.4305
  723SSM    OH1 8853  26.125   6.711   7.539  0.1852  0.0632  0.3586
  723SSM    AM2 8854  26.411   6.900   7.524 -0.3107  0.0850  0.0113
  723SSM    T1A 8855  26.214   6.656   7.211 -0.2531  0.0047  0.0632
  723SSM    C2A 8856  26.426   6.638   6.899 -0.0826  0.0267  0.2047
  723SSM    C3A 8857  26.521   6.570   6.437 -0.2169  0.2372 -0.1458
  723SSM    C4A 8858  26.754   6.363   5.997  0.5171 -0.0080  0.0720
  723SSM    C1B 8859  26.669   7.048   7.305  0.0998  0.2230 -0.3335
  723SSM    C2B 8860  26.747   7.094   6.789 -0.0547  0.0008  0.1371
  723SSM    C3B 8861  26.905   6.942   6.325 -0.2534  0.2413 -0.2682
  723SSM    C4B 8862  27.063   6.794   5.904  0.2469  0.2879 -0.4896
  724SSM    NC3 8863  27.102  18.852   7.442  0.2137 -0.1016  0.4820
  724SSM    PO4 8864  26.843  18.674   7.700 -0.0448 -0.0249 -0.2417
  724SSM    OH1 8865  26.564  18.772   7.499 -0.2542 -0.0775 -0.0679
  724SSM    AM2 8866  26.692  18.711   7.226 -0.4486 -0.1157  0.3739
  724SSM    T1A 8867  26.336  18.857   7.277  0.2610  0.0067 -0.1149
  724SSM    C2A 8868  26.023  18.899   6.994 -0.1132 -0.4193  0.0057
  724SSM    C3A 8869  25.806  18.921   6.597 -0.2498  0.1589 -0.0171
  724SSM    C4A 8870  25.534  19.196   6.765 -0.3793  0.0677 -0.1814
  724SSM    C1B 8871  26.527  18.794   6.837 -0.1762  0.1772  0.1961
  724SSM    C2B 8872  26.322  18.939   6.376  0.1286  0.3289  0.1017
  724SSM    C3B 8873  26.004  19.071   6.011  0.0243 -0.4150  0.0204
  724SSM    C4B 8874  25.699  18.936   5.648 -0.0649  0.1289  0.1736
  725SSM    NC3 8875  12.096   6.704   7.960 -0.0659  0.2676 -0.0392
  725SSM    PO4 8876  11.774   6.577   7.707  0.0218 -0.0737  0.2618
  725SSM    OH1 8877  11.621   6.560   7.363 -0.1365  0.1842  0.3035
  725SSM    AM2 8878  11.782   6.311   7.330  0.0064  0.2606  0.2475
  725SSM    T1A 8879  11.689   6.603   7.011  0.0447  0.0409  0.1384
  725SSM    C2A 8880  11.720   6.624   6.655  0.0424  0.0786  0.1487
  725SSM    C3A 8881  11.852   6.544   6.180 -0.0725 -0.1277  0.1961
  725SSM    C4A 8882  12.159   6.805   5.864  0.0200  0.1474  0.2338
  725SSM    C1B 8883  11.858   6.097   6.981 -0.0697 -0.0243 -0.1537
  725SSM    C2B 8884  11.872   6.128   6.445 -0.1448 -0.0274  0.0013
  725SSM    C3B 8885  11.895   6.101   5.957 -0.3098 -0.1863 -0.1021
  725SSM    C4B 8886  11.905   5.955   5.435  0.2773 -0.0407  0.2516
  726SSM    NC3 8887  23.866   4.130   7.720  0.0026 -0.0315  0.1342
  726SSM    PO4 8888  23.568   4.287   7.922 -0.0398 -0.0330 -0.1496
  726SSM    OH1 8889  23.606   4.539   7.693 -0.0434 -0.3578  0.1141
  726SSM    AM2 8890  23.335   4.484   7.592  0.1674 -0.0493 -0.0901
  726SSM    T1A 8891  23.605   4.792   7.430  0.0965 -0.0735 -0.5404
  726SSM    C2A 8892  23.536   4.965   7.106 -0.1876 -0.1373  0.0021
  726SSM    C3A 8893  23.546   4.944   6.619  0.0448  0.1203 -0.0881
  726SSM    C4A 8894  23.845   4.918   6.258  0.1557 -0.2168  0.2857
  726SSM    C1B 8895  23.086   4.352   7.319  0.3725  0.3138 -0.2012
  726SSM    C2B 8896  23.105   4.145   6.807 -0.1416 -0.2345 -0.0544
  726SSM    C3B 8897  23.286   4.031   6.381 -0.0266  0.0262 -0.0811
  726SSM    C4B 8898  23.475   3.777   6.044 -0.3788  0.3378 -0.0045
  727SSM    NC3 8899   4.662  20.181   8.043 -0.1491  0.0448 -0.1203
  727SSM    PO4 8900   4.592  19.799   7.950  0.4934 -0.0492  0.0714
  727SSM    OH1 8901   4.639  19.617   7.594 -0.3152 -0.1626  0.0200
  727SSM    AM2 8902   4.520  19.911   7.472  0.0190  0.3151 -0.3587
  727SSM    T1A 8903   4.877  19.573   7.338 -0.2178  0.0740 -0.1934
  727SSM    C2A 8904   4.911  19.602   6.960  0.2605  0.0892  0.0521
  727SSM    C3A 8905   4.905  19.409   6.493  0.2178  0.1591 -0.0420
  727SSM    C4A 8906   5.033  19.294   6.052  0.1376 -0.0836  0.0039
  727SSM    C1B 8907   4.307  20.059   7.150 -0.3683 -0.1595 -0.3090
  727SSM    C2B 8908   4.086  20.012   6.698  0.1353 -0.1444  0.3876
  727SSM    C3B 8909   4.132  19.837   6.246  0.0228 -0.0621  0.1353
  727SSM    C4B 8910   4.342  19.681   5.831 -0.2080  0.1244  0.0508
  728SSM    NC3 8911  20.565  11.584   7.136  0.0028 -0.3482 -0.0594
  728SSM    PO4 8912  20.973  11.643   7.254  0.0824  0.3449 -0.1968
  728SSM    OH1 8913  21.121  11.339   7.093 -0.0401  0.2049 -0.0710
  728SSM    AM2 8914  21.149  11.471   6.802 -0.3473  0.0394 -0.2384
  728SSM    T1A 8915  21.204  11.067   6.887  0.2875  0.1209 -0.5346
  728SSM    C2A 8916  21.344  10.859   6.612  0.3030  0.0982 -0.0526
  728SSM    C3A 8917  21.379  10.693   6.256  0.0772  0.1177 -0.1876
  728SSM    C4A 8918  21.495  10.719   5.805  0.0994  0.1714 -0.1078
  728SSM    C1B 8919  21.173  11.374   6.421  0.2424 -0.1549 -0.4247
  728SSM    C2B 8920  21.250  11.195   5.960  0.2321  0.2147 -0.0974
  728SSM    C3B 8921  21.244  11.013   5.484 -0.0338  0.1880 -0.0215
  728SSM    C4B 8922  21.011  10.740   5.156  0.2053  0.0936  0.0518
  729SSM    NC3 8923  13.270  19.576   7.714  0.0245 -0.2268  0.0123
  729SSM    PO4 8924  13.045  19.822   7.483 -0.0827 -0.1063  0.1693
  729SSM    OH1 8925  12.908  19.766   7.110  0.2116 -0.2733 -0.2333
  729SSM    AM2 8926  12.977  20.045   7.072  0.3358  0.0212 -0.1562
  729SSM    T1A 8927  12.790  19.727   6.786 -0.3277  0.2020  0.2054
  729SSM    C2A 8928  12.698  19.566   6.412  0.0039  0.1408  0.1733
  729SSM    C3A 8929  12.297  19.553   6.158  0.5313 -0.1761  0.2867
  729SSM    C4A 8930  12.251  19.829   5.716  0.3756  0.1071  0.0186
  729SSM    C1B 8931  13.166  20.356   6.853  0.2789  0.0390 -0.2481
  729SSM    C2B 8932  12.881  20.503   6.322 -0.0965 -0.1496  0.2204
  729SSM    C3B 8933  12.710  20.537   5.907 -0.1286 -0.0170 -0.0359
  729SSM    C4B 8934  12.655  20.650   5.401 -0.1004 -0.1259 -0.0278
  730SSM    NC3 8935  16.130  24.366   8.240 -0.2183 -0.0815 -0.2037
  730SSM    PO4 8936  16.037  24.056   8.007  0.0322 -0.1164 -0.0231
  730SSM    OH1 8937  16.233  23.902   7.739 -0.1091 -0.0817  0.0110
  730SSM    AM2 8938  16.291  24.174   7.610 -0.2219 -0.0352 -0.0044
  730SSM    T1A 8939  16.116  23.810   7.423 -0.0693 -0.0091  0.0051
  730SSM    C2A 8940  16.159  23.594   7.117  0.1608  0.0160 -0.0870
  730SSM    C3A 8941  15.948  23.222   6.804  0.1059 -0.0003  0.1002
  730SSM    C4A 8942  16.099  23.134   6.374 -0.0507  0.2400 -0.0841
  730SSM    C1B 8943  16.279  24.303   7.237 -0.0044 -0.1982 -0.1707
  730SSM    C2B 8944  16.309  24.258   6.743 -0.1705  0.1698  0.0113
  730SSM    C3B 8945  16.465  24.186   6.249  0.0982 -0.1588  0.2029
  730SSM    C4B 8946  16.463  23.932   5.771  0.1001 -0.0852 -0.0050
  731SSM    NC3 8947   5.196   4.758   7.481 -0.1021  0.0475  0.1572
  731SSM    PO4 8948   5.327   4.442   7.639 -0.0894  0.2360  0.1662
  731SSM    OH1 8949   5.297   4.320   7.286  0.3059  0.0843 -0.0353
  731SSM    AM2 8950   5.071   4.480   7.167 -0.0431 -0.1240  0.2753
  731SSM    T1A 8951   5.373   4.244   6.949 -0.1405  0.3079 -0.5874
  731SSM    C2A 8952   5.438   4.349   6.573  0.1063  0.0822  0.2828
  731SSM    C3A 8953   5.332   4.295   6.106 -0.1328 -0.1910  0.0358
  731SSM    C4A 8954   5.379   4.170   5.697  0.1177 -0.0481  0.1925
  731SSM    C1B 8955   4.986   4.510   6.763  0.1230 -0.1316 -0.2675
  731SSM    C2B 8956   4.811   4.519   6.270 -0.0384  0.1552 -0.1298
  731SSM    C3B 8957   4.910   4.399   5.835 -0.4916 -0.0167  0.3958
  731SSM    C4B 8958   4.833   4.193   5.417  0.0094  0.1443 -0.0270
  732SSM    NC3 8959   0.037   1.686   7.861  0.0179 -0.0422 -0.0415
  732SSM    PO4 8960  -0.327   1.593   7.781 -0.4034 -0.0542 -0.1176
  732SSM    OH1 8961  -0.223   1.535   7.443  0.1861 -0.2273 -0.1922
  732SSM    AM2 8962  -0.423   1.701   7.287 -0.1299  0.1562  0.1279
  732SSM    T1A 8963  -0.258   1.276   7.222 -0.1878 -0.0499  0.0868
  732SSM    C2A 8964  -0.196   1.265   6.849  0.0260  0.0725  0.3331
  732SSM    C3A 8965  -0.263   1.405   6.324 -0.0328  0.1411 -0.0449
  732SSM    C4A 8966  -0.303   1.312   5.858 -0.0160  0.3686 -0.1296
  732SSM    C1B 8967  -0.594   1.881   6.999  0.2991 -0.4118  0.1365
  732SSM    C2B 8968  -0.576   1.829   6.454 -0.2894 -0.2589 -0.0083
  732SSM    C3B 8969  -0.424   1.791   5.980  0.1893 -0.1536 -0.0631
  732SSM    C4B 8970  -0.460   1.626   5.478 -0.0179  0.0757  0.0507
  733SSM    NC3 8971  24.436   5.519   7.834  0.1011 -0.0117 -0.0146
  733SSM    PO4 8972  24.472   5.153   7.999  0.1042 -0.2243 -0.0972
  733SSM    OH1 8973  24.408   4.951   7.677  0.1524 -0.4023 -0.3517
  733SSM    AM2 8974  24.688   4.880   7.622 -0.3361  0.1368  0.1455
  733SSM    T1A 8975  24.403   5.086   7.359 -0.0668 -0.1995  0.0121
  733SSM    C2A 8976  24.524   5.176   7.000 -0.2341  0.1039 -0.2220
  733SSM    C3A 8977  24.512   5.242   6.531  0.0237 -0.1529 -0.0019
  733SSM    C4A 8978  24.761   5.408   6.077 -0.1022  0.1804  0.0830
  733SSM    C1B 8979  24.850   4.898   7.221  0.2087 -0.0794 -0.1539
  733SSM    C2B 8980  25.058   5.053   6.779  0.2238  0.2655 -0.0765
  733SSM    C3B 8981  25.150   5.301   6.407 -0.1828  0.1227 -0.0267
  733SSM    C4B 8982  25.290   5.506   5.975  0.0680  0.0438 -0.0840
  734SSM    NC3 8983  15.998  13.254   7.139 -0.2705  0.0906  0.1016
  734SSM    PO4 8984  16.042  12.861   7.039  0.0537  0.0413  0.1238
  734SSM    OH1 8985  16.214  12.618   6.784  0.0198  0.0783  0.0347
  734SSM    AM2 8986  16.097  12.773   6.547 -0.0077  0.0076  0.0338
  734SSM    T1A 8987  16.211  12.319   6.619 -0.1694 -0.3046  0.0466
  734SSM    C2A 8988  16.163  12.028   6.341  0.0824 -0.0809 -0.0370
  734SSM    C3A 8989  16.178  11.918   5.873 -0.4407 -0.0413 -0.0774
  734SSM    C4A 8990  16.145  11.773   5.412 -0.0274 -0.2086  0.1630
  734SSM    C1B 8991  16.312  12.857   6.229  0.0013 -0.1004 -0.3718
  734SSM    C2B 8992  16.423  13.021   5.775  0.3923 -0.0245 -0.0723
  734SSM    C3B 8993  16.239  13.109   5.313 -0.0179  0.0114  0.3492
  734SSM    C4B 8994  16.263  13.346   4.842 -0.2191 -0.0260 -0.1136
  735SSM    NC3 8995   0.776  21.908   8.081  0.2445  0.1177  0.2673
  735SSM    PO4 8996   0.725  22.158   7.803 -0.1225 -0.1073 -0.0859
  735SSM    OH1 8997   0.934  22.198   7.514 -0.0748 -0.3440  0.2053
  735SSM    AM2 8998   0.736  22.355   7.355  0.0978  0.0412 -0.1821
  735SSM    T1A 8999   1.036  22.133   7.183  0.1763  0.1797  0.3186
  735SSM    C2A 9000   1.026  22.090   6.837  0.2834  0.1589 -0.5068
  735SSM    C3A 9001   1.120  22.100   6.407 -0.1539 -0.4651  0.1463
  735SSM    C4A 9002   1.094  22.026   5.890 -0.2171 -0.2842 -0.0174
  735SSM    C1B 9003   0.647  22.397   7.048 -0.1194  0.0664 -0.0857
  735SSM    C2B 9004   0.602  22.328   6.578 -0.0811  0.1830 -0.1613
  735SSM    C3B 9005   0.762  22.481   6.136  0.0644  0.1696  0.1786
  735SSM    C4B 9006   0.867  22.748   5.730 -0.1391  0.1065 -0.0987
  736SSM    NC3 9007  11.126   4.500   7.967 -0.1376 -0.1490  0.1021
  736SSM    PO4 9008  10.879   4.612   7.673 -0.2196 -0.2301 -0.2033
  736SSM    OH1 9009  10.996   4.894   7.432  0.1120 -0.0332  0.1147
  736SSM    AM2 9010  11.245   4.713   7.343  0.4093  0.0186  0.2521
  736SSM    T1A 9011  11.006   5.092   7.136 -0.1528 -0.0314 -0.3102
  736SSM    C2A 9012  11.093   4.864   6.883  0.0567  0.0031 -0.0433
  736SSM    C3A 9013  11.155   4.847   6.406  0.5043  0.0064 -0.1745
  736SSM    C4A 9014  11.283   4.895   5.934 -0.1764  0.1167 -0.1132
  736SSM    C1B 9015  11.319   4.473   7.067  0.3624  0.0220  0.3472
  736SSM    C2B 9016  11.494   4.431   6.598  0.3922  0.0171  0.2139
  736SSM    C3B 9017  11.537   4.470   6.126 -0.2009  0.4152 -0.1934
  736SSM    C4B 9018  11.521   4.593   5.681  0.0963 -0.0170  0.0036
  737SSM    NC3 9019  25.823  24.544   7.938 -0.2672  0.1551  0.0229
  737SSM    PO4 9020  26.018  24.679   7.633  0.0809 -0.4484 -0.0258
  737SSM    OH1 9021  26.110  24.363   7.445  0.0634 -0.1799  0.1577
  737SSM    AM2 9022  26.017  24.487   7.198  0.1891  0.3379 -0.5340
  737SSM    T1A 9023  26.126  24.095   7.228  0.1683 -0.2361 -0.0924
  737SSM    C2A 9024  25.846  24.165   6.929  0.3106 -0.1005 -0.2926
  737SSM    C3A 9025  25.603  24.013   6.516 -0.0835  0.5858 -0.0226
  737SSM    C4A 9026  25.228  23.998   6.247  0.0304  0.0831  0.0063
  737SSM    C1B 9027  26.010  24.581   6.845  0.1242 -0.2029  0.1580
  737SSM    C2B 9028  26.127  24.704   6.318 -0.3669 -0.0944  0.3838
  737SSM    C3B 9029  26.050  24.938   5.882  0.0490 -0.1631  0.1010
  737SSM    C4B 9030  25.954  25.178   5.446 -0.0094 -0.0500 -0.0996
  738SSM    NC3 9031  21.696   2.950   7.707  0.1042  0.2419  0.1606
  738SSM    PO4 9032  21.274   3.015   7.790 -0.2043 -0.0025 -0.1764
  738SSM    OH1 9033  21.216   3.034   7.411 -0.3141  0.4670  0.1870
  738SSM    AM2 9034  21.048   2.742   7.428 -0.5260 -0.3622  0.1697
  738SSM    T1A 9035  21.236   3.000   7.082 -0.0127  0.0075 -0.1038
  738SSM    C2A 9036  21.213   2.770   6.734 -0.0866  0.1150 -0.0954
  738SSM    C3A 9037  21.077   2.565   6.299 -0.1766  0.0514 -0.2338
  738SSM    C4A 9038  21.018   2.481   5.845 -0.0196  0.0160  0.0002
  738SSM    C1B 9039  20.965   2.529   7.132 -0.1485  0.2293 -0.0986
  738SSM    C2B 9040  20.895   2.191   6.701  0.2228  0.0157 -0.3273
  738SSM    C3B 9041  20.851   2.158   6.201  0.0545 -0.0049  0.0171
  738SSM    C4B 9042  20.726   2.127   5.755  0.1916  0.0360 -0.0425
  739SSM    NC3 9043  10.645  24.840   7.363  0.0093 -0.0764  0.2036
  739SSM    PO4 9044  10.800  24.522   7.479  0.0955 -0.1952  0.2038
  739SSM    OH1 9045  10.899  24.348   7.143  0.3492  0.1640  0.3895
  739SSM    AM2 9046  10.948  24.607   7.027  0.0452 -0.1407  0.1585
  739SSM    T1A 9047  10.993  24.163   6.881  0.0050  0.0410  0.0668
  739SSM    C2A 9048  10.954  24.030   6.575  0.1698  0.1071  0.0514
  739SSM    C3A 9049  10.921  23.951   6.104 -0.0226 -0.1045  0.3745
  739SSM    C4A 9050  10.715  23.894   5.754 -0.2063  0.2757 -0.1994
  739SSM    C1B 9051  11.147  24.807   6.676  0.2032  0.1292 -0.0060
  739SSM    C2B 9052  11.071  24.939   6.198  0.0493 -0.0484 -0.2364
  739SSM    C3B 9053  10.952  25.102   5.747 -0.0989  0.1224 -0.0915
  739SSM    C4B 9054  11.035  25.233   5.281 -0.1002 -0.1458  0.4477
  740SSM    NC3 9055  15.868  14.543   7.211 -0.3179  0.2392  0.2770
  740SSM    PO4 9056  15.614  14.317   7.416  0.2754  0.0935  0.1610
  740SSM    OH1 9057  15.344  14.204   7.150  0.0297 -0.1538  0.2351
  740SSM    AM2 9058  15.434  14.425   6.958  0.2284 -0.3679 -0.0513
  740SSM    T1A 9059  15.049  14.210   6.949  0.2096 -0.0241  0.0195
  740SSM    C2A 9060  14.820  14.148   6.628 -0.1953 -0.0353  0.0060
  740SSM    C3A 9061  14.732  14.188   6.139  0.0520  0.0059 -0.1223
  740SSM    C4A 9062  14.545  14.349   5.692  0.0923  0.2406 -0.4291
  740SSM    C1B 9063  15.618  14.521   6.605 -0.1725  0.2333  0.1786
  740SSM    C2B 9064  15.761  14.564   6.138 -0.0936  0.0085  0.2556
  740SSM    C3B 9065  15.821  14.463   5.651 -0.1530  0.1942  0.1319
  740SSM    C4B 9066  15.948  14.403   5.212 -0.0526  0.2314  0.0291
  741SSM    NC3 9067   9.172  12.113   7.353  0.1150 -0.1637  0.2622
  741SSM    PO4 9068   8.815  12.250   7.263 -0.1161 -0.0593  0.0306
  741SSM    OH1 9069   8.842  12.141   6.877  0.3778  0.1446 -0.4659
  741SSM    AM2 9070   9.098  12.029   6.923  0.0507  0.0370 -0.1247
  741SSM    T1A 9071   8.856  12.006   6.565 -0.0710  0.3748  0.0906
  741SSM    C2A 9072   8.740  11.788   6.220 -0.0066 -0.2229  0.0888
  741SSM    C3A 9073   8.754  11.749   5.723  0.0796  0.2083 -0.0178
  741SSM    C4A 9074   8.834  11.496   5.339 -0.0935 -0.0472 -0.0191
  741SSM    C1B 9075   9.376  12.026   6.644 -0.1817  0.1504  0.1819
  741SSM    C2B 9076   9.575  12.042   6.124  0.1448  0.1243  0.0448
  741SSM    C3B 9077   9.759  11.782   5.859  0.2186  0.2038 -0.0406
  741SSM    C4B 9078   9.570  11.662   5.428  0.0001 -0.3144 -0.0749
  742SSM    NC3 9079   4.572   3.108   7.672  0.1055 -0.1971 -0.0954
  742SSM    PO4 9080   4.915   3.199   7.599 -0.2561  0.0986 -0.1056
  742SSM    OH1 9081   4.882   3.081   7.250  0.0957  0.3290 -0.0004
  742SSM    AM2 9082   4.653   3.302   7.225 -0.2259  0.3247 -0.2252
  742SSM    T1A 9083   4.759   2.926   6.979 -0.0152 -0.0705  0.0989
  742SSM    C2A 9084   4.578   2.937   6.650  0.0495 -0.0717  0.3060
  742SSM    C3A 9085   4.496   2.942   6.162  0.1694  0.0239  0.1269
  742SSM    C4A 9086   4.417   3.011   5.700 -0.2086 -0.1624  0.0582
  742SSM    C1B 9087   4.606   3.656   7.049  0.3498 -0.1000  0.0098
  742SSM    C2B 9088   4.501   4.041   6.703 -0.1530 -0.0098  0.0890
  742SSM    C3B 9089   4.663   4.063   6.227 -0.2049  0.1157 -0.0636
  742SSM    C4B 9090   4.550   3.845   5.803  0.1348 -0.1462  0.0116
  743SSM    NC3 9091   6.261   3.623   7.400 -0.0099 -0.1598 -0.0140
  743SSM    PO4 9092   5.902   3.704   7.462  0.0238  0.3889  0.0804
  743SSM    OH1 9093   5.705   3.427   7.195 -0.3450 -0.5667 -0.5242
  743SSM    AM2 9094   5.958   3.521   7.052  0.2261  0.3852  0.3148
  743SSM    T1A 9095   5.621   3.245   6.926  0.1247  0.0689 -0.1195
  743SSM    C2A 9096   5.605   2.943   6.677 -0.3373 -0.3012  0.1143
  743SSM    C3A 9097   5.420   2.832   6.230  0.0893  0.2036 -0.0262
  743SSM    C4A 9098   5.229   2.446   5.933  0.3102 -0.0576 -0.1340
  743SSM    C1B 9099   5.901   3.458   6.590  0.2231  0.1425 -0.5285
  743SSM    C2B 9100   5.976   3.503   6.076 -0.0418  0.1173 -0.3347
  743SSM    C3B 9101   6.012   3.364   5.589 -0.1799  0.0672  0.3243
  743SSM    C4B 9102   6.209   3.584   5.225 -0.3072 -0.3999  0.1304
  744SSM    NC3 9103  25.886   1.198   7.909  0.1488 -0.0423  0.1689
  744SSM    PO4 9104  25.585   1.450   7.965  0.1353  0.0403 -0.0465
  744SSM    OH1 9105  25.669   1.567   7.651  0.0911 -0.2669 -0.1083
  744SSM    AM2 9106  25.543   1.336   7.504  0.1578  0.2422  0.0349
  744SSM    T1A 9107  25.708   1.789   7.384 -0.2058  0.3033 -0.0172
  744SSM    C2A 9108  25.747   1.905   7.002  0.0168  0.0103 -0.2109
  744SSM    C3A 9109  25.624   2.000   6.496  0.0334 -0.0535  0.0636
  744SSM    C4A 9110  25.776   2.237   6.163 -0.2499  0.1355 -0.1263
  744SSM    C1B 9111  25.550   1.360   7.122 -0.1082 -0.0463  0.5187
  744SSM    C2B 9112  25.596   1.479   6.610 -0.3116 -0.1335 -0.1129
  744SSM    C3B 9113  25.713   1.670   6.088 -0.1103  0.1500  0.4175
  744SSM    C4B 9114  25.776   1.894   5.665 -0.3024  0.0883  0.3349
  745SSM    NC3 9115   4.966  14.613   6.861  0.0774  0.2193 -0.1720
  745SSM    PO4 9116   4.738  14.844   7.099  0.3581  0.1938 -0.0024
  745SSM    OH1 9117   4.632  15.089   6.821  0.0445  0.3198 -0.0992
  745SSM    AM2 9118   4.659  14.886   6.607 -0.1858 -0.3641 -0.1425
  745SSM    T1A 9119   4.521  15.271   6.559 -0.0978  0.0785 -0.2308
  745SSM    C2A 9120   4.465  15.441   6.212 -0.0171  0.0973 -0.0880
  745SSM    C3A 9121   4.396  15.631   5.839  0.0585  0.3317 -0.1257
  745SSM    C4A 9122   4.518  15.987   5.507  0.0643 -0.1919  0.0417
  745SSM    C1B 9123   4.486  14.902   6.247 -0.1066  0.1074  0.0800
  745SSM    C2B 9124   4.463  15.136   5.736 -0.1654  0.0063 -0.1698
  745SSM    C3B 9125   4.295  15.323   5.371 -0.1491  0.0258 -0.0769
  745SSM    C4B 9126   4.080  15.486   4.949  0.1693 -0.3392  0.1471
  746SSM    NC3 9127   8.425  16.060   7.480 -0.0484  0.2244  0.1230
  746SSM    PO4 9128   8.725  16.138   7.688  0.1388  0.1536  0.0218
  746SSM    OH1 9129   8.927  16.254   7.404  0.5359 -0.0534  0.0382
  746SSM    AM2 9130   8.771  16.103   7.189  0.0413 -0.0779 -0.0723
  746SSM    T1A 9131   9.225  16.182   7.248 -0.1758 -0.2359 -0.1367
  746SSM    C2A 9132   9.488  16.201   6.915  0.3230  0.0294  0.0381
  746SSM    C3A 9133   9.492  16.222   6.492  0.1365  0.0643 -0.0089
  746SSM    C4A 9134   9.540  16.192   6.048  0.1551 -0.3649  0.1496
  746SSM    C1B 9135   8.859  15.964   6.809 -0.1746 -0.2787 -0.1428
  746SSM    C2B 9136   8.993  15.938   6.296  0.1161  0.1251  0.3463
  746SSM    C3B 9137   9.075  16.085   5.864 -0.0086 -0.1832  0.1559
  746SSM    C4B 9138   9.378  16.212   5.522  0.1828  0.0571 -0.2266
  747SSM    NC3 9139  21.756  10.865   7.556  0.1713  0.1965  0.0177
  747SSM    PO4 9140  21.874  10.468   7.635  0.0407 -0.3711  0.1508
  747SSM    OH1 9141  21.908  10.352   7.230 -0.0285  0.0154  0.1917
  747SSM    AM2 9142  21.941  10.636   7.176 -0.0964 -0.2020  0.2846
  747SSM    T1A 9143  21.938  10.222   6.904 -0.0980  0.1909 -0.0431
  747SSM    C2A 9144  22.059   9.987   6.588  0.0865  0.1682  0.0310
  747SSM    C3A 9145  22.122   9.954   6.106 -0.1690  0.2485 -0.0087
  747SSM    C4A 9146  22.489   9.666   5.821  0.0853 -0.1959  0.2773
  747SSM    C1B 9147  21.809  10.970   7.081  0.2429  0.1527  0.0654
  747SSM    C2B 9148  21.623  11.315   6.648 -0.2315 -0.0826 -0.1034
  747SSM    C3B 9149  21.666  11.418   6.206  0.0298  0.2608  0.0997
  747SSM    C4B 9150  21.790  11.804   5.957  0.1948 -0.3006  0.1017
  748SSM    NC3 9151   6.575  12.543   7.146 -0.2310 -0.2811  0.3311
  748SSM    PO4 9152   6.843  12.259   7.139  0.1297 -0.0662 -0.0007
  748SSM    OH1 9153   7.034  12.250   6.833 -0.0176  0.2845  0.0671
  748SSM    AM2 9154   6.808  12.151   6.670  0.1553 -0.1139  0.0915
  748SSM    T1A 9155   7.232  12.384   6.578 -0.3527  0.3563  0.4898
  748SSM    C2A 9156   7.201  12.363   6.185 -0.0688 -0.0079  0.3035
  748SSM    C3A 9157   7.399  12.279   5.813  0.1156 -0.1131  0.2721
  748SSM    C4A 9158   7.785  12.083   5.573 -0.1233 -0.1577 -0.3060
  748SSM    C1B 9159   6.745  12.092   6.315 -0.0595  0.0508  0.2895
  748SSM    C2B 9160   6.485  11.810   5.960 -0.0891  0.0722  0.2760
  748SSM    C3B 9161   6.187  11.730   5.555  0.0253 -0.0023 -0.1120
  748SSM    C4B 9162   5.935  11.711   5.152  0.2453 -0.2390  0.2770
  749SSM    NC3 9163  13.196  15.822   7.905  0.0828 -0.2782  0.0446
  749SSM    PO4 9164  13.484  16.067   7.914  0.2290 -0.0223  0.1089
  749SSM    OH1 9165  13.392  16.197   7.591  0.2013  0.1073 -0.1212
  749SSM    AM2 9166  13.626  16.123   7.450 -0.1663 -0.3100 -0.6494
  749SSM    T1A 9167  13.192  16.212   7.312 -0.2140  0.2656 -0.1073
  749SSM    C2A 9168  13.200  16.167   6.898  0.1459 -0.0107  0.0269
  749SSM    C3A 9169  13.285  16.237   6.394 -0.0801  0.0303 -0.0843
  749SSM    C4A 9170  13.499  16.220   5.945  0.0958  0.0137  0.1326
  749SSM    C1B 9171  13.639  16.205   7.090  0.2021  0.3606 -0.0588
  749SSM    C2B 9172  13.686  16.410   6.599  0.1245 -0.2619  0.0113
  749SSM    C3B 9173  13.955  16.227   6.175  0.0949  0.0074 -0.3656
  749SSM    C4B 9174  14.095  16.177   5.728  0.3115 -0.0445  0.1230
  750SSM    NC3 9175  26.542  26.117   7.605 -0.0358 -0.1253 -0.0906
  750SSM    PO4 9176  26.735  25.825   7.799  0.1699 -0.1081 -0.2447
  750SSM    OH1 9177  26.762  25.607   7.501 -0.2050  0.5318 -0.2263
  750SSM    AM2 9178  26.656  25.797   7.315  0.2185 -0.1303 -0.4165
  750SSM    T1A 9179  26.943  25.433   7.253 -0.2779 -0.2546 -0.0662
  750SSM    C2A 9180  26.937  25.362   6.825 -0.2621  0.0219  0.2667
  750SSM    C3A 9181  26.982  25.489   6.362  0.1968  0.2998 -0.2707
  750SSM    C4A 9182  27.118  25.705   5.873  0.0793  0.0392  0.1318
  750SSM    C1B 9183  26.603  26.073   7.094 -0.3557  0.1596 -0.2770
  750SSM    C2B 9184  26.668  26.212   6.649 -0.2177  0.0684 -0.2961
  750SSM    C3B 9185  26.616  26.349   6.202  0.0959  0.3552  0.0552
  750SSM    C4B 9186  26.653  26.345   5.694 -0.1926  0.0418  0.0603
  751SSM    NC3 9187  22.839  20.920   7.071  0.2398 -0.2587  0.2766
  751SSM    PO4 9188  23.231  20.899   7.123 -0.0242  0.0806  0.0551
  751SSM    OH1 9189  23.482  20.935   6.839 -0.0176  0.1456 -0.2215
  751SSM    AM2 9190  23.502  20.640   6.791  0.0368  0.0298 -0.1716
  751SSM    T1A 9191  23.640  20.938   6.533 -0.0324 -0.2531 -0.0153
  751SSM    C2A 9192  23.839  20.861   6.196  0.0462 -0.0620 -0.0864
  751SSM    C3A 9193  23.955  20.736   5.754  0.3023 -0.0170 -0.1811
  751SSM    C4A 9194  24.358  20.627   5.613 -0.2401  0.0862 -0.1697
  751SSM    C1B 9195  23.301  20.331   6.669 -0.2764  0.0570 -0.0055
  751SSM    C2B 9196  23.214  20.160   6.204 -0.1950  0.0476 -0.0444
  751SSM    C3B 9197  23.110  19.926   5.767  0.1962 -0.2737 -0.0983
  751SSM    C4B 9198  23.017  19.703   5.326 -0.0271 -0.1518  0.0739
  752SSM    NC3 9199  10.167  20.559   7.382  0.2075  0.2722 -0.1735
  752SSM    PO4 9200  10.284  20.919   7.305 -0.0127 -0.1241  0.0330
  752SSM    OH1 9201  10.064  20.913   6.980 -0.2155  0.1507 -0.1104
  752SSM    AM2 9202  10.316  21.011   6.828 -0.0416  0.0997 -0.0001
  752SSM    T1A 9203  10.000  20.713   6.712  0.2885 -0.2019  0.0568
  752SSM    C2A 9204   9.953  20.787   6.334  0.2347  0.2026  0.0468
  752SSM    C3A 9205  10.075  20.891   5.914  0.1120 -0.0265  0.0483
  752SSM    C4A 9206  10.232  21.048   5.465 -0.2660  0.0108  0.1328
  752SSM    C1B 9207  10.404  21.093   6.410 -0.2401  0.2987 -0.1710
  752SSM    C2B 9208  10.488  21.181   5.898  0.0894 -0.2645  0.0161
  752SSM    C3B 9209  10.362  21.527   5.707  0.1804 -0.4383 -0.0056
  752SSM    C4B 9210  10.354  21.911   5.513  0.1351 -0.3119  0.1361
  753SSM    NC3 9211  27.150  23.127   7.930 -0.0716 -0.2791  0.1171
  753SSM    PO4 9212  26.818  23.168   7.748 -0.2203  0.0663  0.2840
  753SSM    OH1 9213  26.853  23.188   7.422  0.1053  0.3885 -0.3406
  753SSM    AM2 9214  26.910  22.879   7.371  0.3656 -0.2716  0.1897
  753SSM    T1A 9215  26.940  23.249   7.105 -0.0563  0.0419  0.2081
  753SSM    C2A 9216  27.049  23.066   6.727  0.0542 -0.1793 -0.2464
  753SSM    C3A 9217  27.125  23.098   6.224 -0.0878  0.2392  0.0005
  753SSM    C4A 9218  27.234  22.944   5.771  0.0919 -0.2415  0.2970
  753SSM    C1B 9219  26.874  22.627   6.994  0.0669  0.0973  0.0044
  753SSM    C2B 9220  26.951  22.667   6.444 -0.2598  0.1547 -0.3067
  753SSM    C3B 9221  26.753  22.742   6.066 -0.3149 -0.0576  0.1080
  753SSM    C4B 9222  26.657  23.004   5.585  0.0198  0.2991 -0.2891
  754SSM    NC3 9223  17.039  26.716   8.203 -0.0858  0.1610 -0.0043
  754SSM    PO4 9224  17.403  26.526   8.085 -0.0541 -0.0988  0.0701
  754SSM    OH1 9225  17.585  26.646   7.809  0.0682 -0.3621  0.2214
  754SSM    AM2 9226  17.532  26.419   7.609  0.1946 -0.1682  0.2783
  754SSM    T1A 9227  17.844  26.649   7.545 -0.0247  0.1260  0.2766
  754SSM    C2A 9228  17.953  26.638   7.191  0.0353 -0.0191 -0.4566
  754SSM    C3A 9229  18.080  26.682   6.739  0.0338  0.2231 -0.1693
  754SSM    C4A 9230  18.139  26.829   6.314 -0.1164 -0.1243 -0.1826
  754SSM    C1B 9231  17.534  26.369   7.277  0.2844  0.1331 -0.0913
  754SSM    C2B 9232  17.628  26.370   6.802  0.0690  0.0436 -0.0292
  754SSM    C3B 9233  17.787  26.482   6.350  0.1434  0.2280  0.0872
  754SSM    C4B 9234  17.893  26.698   5.932  0.2301  0.1643 -0.0706
  755SSM    NC3 9235   7.931  15.321   7.657 -0.4201  0.1473  0.1076
  755SSM    PO4 9236   7.946  15.715   7.627 -0.3500  0.0474  0.2106
  755SSM    OH1 9237   7.975  15.535   7.272  0.2229 -0.1218 -0.0063
  755SSM    AM2 9238   8.206  15.753   7.221  0.0215 -0.2434 -0.2974
  755SSM    T1A 9239   7.991  15.515   6.912 -0.2067 -0.1491  0.0118
  755SSM    C2A 9240   8.048  15.595   6.543 -0.0942  0.0456 -0.1500
  755SSM    C3A 9241   8.139  15.634   6.080 -0.0374 -0.1417  0.0184
  755SSM    C4A 9242   8.163  15.941   5.719 -0.0617  0.3192  0.2048
  755SSM    C1B 9243   8.405  15.909   6.940 -0.0040  0.2669  0.2360
  755SSM    C2B 9244   8.401  15.946   6.422 -0.0298 -0.4029 -0.3059
  755SSM    C3B 9245   8.605  15.800   5.975 -0.3502  0.1977 -0.0361
  755SSM    C4B 9246   8.650  16.003   5.499 -0.1513 -0.0611 -0.3427
  756SSM    NC3 9247   2.163  14.577   7.898  0.0401  0.3678  0.0700
  756SSM    PO4 9248   1.965  14.405   7.591  0.0928  0.1061  0.2440
  756SSM    OH1 9249   1.819  14.590   7.252 -0.2041  0.1750  0.2652
  756SSM    AM2 9250   2.096  14.529   7.144 -0.1079  0.4353 -0.0553
  756SSM    T1A 9251   1.749  14.692   6.926 -0.2451 -0.1724 -0.3650
  756SSM    C2A 9252   1.769  14.688   6.554  0.2662 -0.0906  0.1887
  756SSM    C3A 9253   1.651  14.802   6.053 -0.1642 -0.0542  0.1631
  756SSM    C4A 9254   1.636  15.031   5.530 -0.0804 -0.1108 -0.4422
  756SSM    C1B 9255   2.211  14.408   6.742  0.0533  0.0786 -0.0334
  756SSM    C2B 9256   2.318  14.336   6.229 -0.0363 -0.0884  0.2476
  756SSM    C3B 9257   2.344  14.320   5.732  0.2711  0.2458  0.2671
  756SSM    C4B 9258   2.387  14.557   5.262  0.1533  0.1850  0.1170
  757SSM    NC3 9259   9.093  24.543   7.830 -0.0600 -0.0761 -0.2422
  757SSM    PO4 9260   9.424  24.663   7.636 -0.0343  0.3475  0.0540
  757SSM    OH1 9261   9.354  24.853   7.377 -0.2455  0.1962  0.2680
  757SSM    AM2 9262   9.589  24.974   7.288 -0.2750 -0.0843  0.2842
  757SSM    T1A 9263   9.268  24.879   7.052  0.0351  0.1199 -0.2989
  757SSM    C2A 9264   9.297  24.999   6.652  0.0412 -0.1657 -0.0496
  757SSM    C3A 9265   9.564  25.283   6.326  0.1032  0.1874 -0.0235
  757SSM    C4A 9266   9.866  25.164   5.945  0.0860 -0.0499  0.4777
  757SSM    C1B 9267   9.856  24.764   7.115  0.2361  0.0364 -0.0984
  757SSM    C2B 9268  10.333  24.787   6.957  0.0884 -0.0804  0.1483
  757SSM    C3B 9269  10.617  24.929   6.656 -0.2023 -0.0720  0.1509
  757SSM    C4B 9270  10.562  24.971   6.102 -0.2203  0.1726  0.0632
  758SSM    NC3 9271  14.591  21.225   7.912 -0.1066 -0.3880 -0.0114
  758SSM    PO4 9272  14.990  21.156   7.807 -0.2591 -0.0809  0.5166
  758SSM    OH1 9273  15.237  21.038   7.531  0.2902  0.1824 -0.2629
  758SSM    AM2 9274  15.142  21.295   7.373  0.1789 -0.2013 -0.0292
  758SSM    T1A 9275  15.374  20.950   7.220 -0.2567 -0.4331 -0.2939
  758SSM    C2A 9276  15.687  21.048   6.974  0.1338 -0.0514 -0.0128
  758SSM    C3A 9277  15.841  21.057   6.538  0.1085 -0.1725 -0.2825
  758SSM    C4A 9278  15.988  21.024   6.046  0.2928 -0.1318 -0.1622
  758SSM    C1B 9279  15.102  21.274   7.008 -0.1124 -0.1289 -0.2054
  758SSM    C2B 9280  15.084  21.202   6.477  0.4562 -0.0148 -0.0494
  758SSM    C3B 9281  15.473  21.006   6.192  0.3353 -0.0401  0.1898
  758SSM    C4B 9282  15.562  21.112   5.751  0.0738  0.0452 -0.1639
  759SSM    NC3 9283  20.974   9.841   7.677 -0.0788 -0.1514 -0.1672
  759SSM    PO4 9284  20.979   9.661   7.351 -0.0721  0.1806 -0.0864
  759SSM    OH1 9285  21.199   9.887   7.169  0.0267 -0.0034  0.0368
  759SSM    AM2 9286  21.190   9.712   6.905 -0.0881  0.1045  0.1216
  759SSM    T1A 9287  21.396  10.059   6.960  0.0314 -0.2937  0.2880
  759SSM    C2A 9288  21.584  10.273   6.628 -0.2969 -0.2434  0.2024
  759SSM    C3A 9289  21.738  10.322   6.195 -0.0058 -0.2204  0.0001
  759SSM    C4A 9290  21.919  10.331   5.735  0.2037 -0.0996 -0.0446
  759SSM    C1B 9291  21.191   9.556   6.524  0.0161 -0.4760 -0.2102
  759SSM    C2B 9292  21.184   9.566   6.013  0.0771  0.0467  0.0911
  759SSM    C3B 9293  21.123   9.245   5.634  0.2224 -0.2314 -0.2287
  759SSM    C4B 9294  20.991   9.398   5.180 -0.3935 -0.1887  0.0191
  760SSM    NC3 9295  21.723  24.023   7.965 -0.0942 -0.1741  0.1774
  760SSM    PO4 9296  21.925  23.780   7.742  0.3076 -0.0823 -0.2303
  760SSM    OH1 9297  22.023  23.926   7.461 -0.2923 -0.3040 -0.1334
  760SSM    AM2 9298  21.744  23.988   7.363 -0.3810  0.2157  0.0090
  760SSM    T1A 9299  22.076  23.974   7.130 -0.1095 -0.0312 -0.0487
  760SSM    C2A 9300  22.038  23.781   6.808  0.2074  0.1254  0.2052
  760SSM    C3A 9301  21.984  23.624   6.365 -0.0117  0.1575 -0.0288
  760SSM    C4A 9302  22.014  23.535   5.899 -0.0488 -0.1717 -0.1658
  760SSM    C1B 9303  21.588  23.827   7.053  0.1228  0.0045  0.1632
  760SSM    C2B 9304  21.511  23.636   6.593  0.1890 -0.2179 -0.2060
  760SSM    C3B 9305  21.493  23.630   6.123 -0.3141 -0.3369 -0.0533
  760SSM    C4B 9306  21.452  23.407   5.750 -0.5014  0.1196 -0.1484
  761SSM    NC3 9307   8.015  22.080   7.831  0.2414  0.3474  0.3246
  761SSM    PO4 9308   8.391  22.106   7.816 -0.0929 -0.0833 -0.0050
  761SSM    OH1 9309   8.503  22.301   7.491  0.1717 -0.0748 -0.1025
  761SSM    AM2 9310   8.632  22.076   7.339  0.0136  0.2744  0.2243
  761SSM    T1A 9311   8.492  22.435   7.184 -0.3521 -0.2203  0.0234
  761SSM    C2A 9312   8.306  22.641   6.847 -0.1792 -0.1958  0.1727
  761SSM    C3A 9313   8.333  22.738   6.394 -0.0501 -0.1016  0.0238
  761SSM    C4A 9314   8.188  22.559   5.964  0.4115 -0.0502 -0.1060
  761SSM    C1B 9315   8.714  22.017   6.940  0.2202 -0.0335  0.0451
  761SSM    C2B 9316   8.829  22.157   6.459 -0.0529 -0.0349  0.0858
  761SSM    C3B 9317   8.593  22.397   6.093  0.0262  0.1550 -0.0222
  761SSM    C4B 9318   8.658  22.612   5.681 -0.1494  0.1178  0.0344
  762SSM    NC3 9319   0.993  15.605   7.842 -0.4888 -0.0472  0.0365
  762SSM    PO4 9320   1.294  15.809   7.735 -0.1381  0.1410  0.0809
  762SSM    OH1 9321   1.577  15.824   7.480  0.2924  0.0769 -0.0394
  762SSM    AM2 9322   1.372  15.749   7.284 -0.2088  0.2100  0.0803
  762SSM    T1A 9323   1.825  15.954   7.279  0.1747  0.0897  0.1278
  762SSM    C2A 9324   1.752  16.184   6.955  0.2037  0.2054  0.0771
  762SSM    C3A 9325   1.588  16.277   6.531 -0.1366 -0.1037 -0.1586
  762SSM    C4A 9326   1.307  16.505   6.165  0.1032 -0.1558  0.0172
  762SSM    C1B 9327   1.290  15.807   6.894 -0.1058  0.4774 -0.0308
  762SSM    C2B 9328   1.182  15.972   6.442  0.0709  0.1229  0.2586
  762SSM    C3B 9329   1.197  16.072   5.972  0.1118  0.0874  0.2115
  762SSM    C4B 9330   1.111  16.214   5.560  0.1487  0.0288  0.0083
  763SSM    NC3 9331  24.417   6.460   8.513 -0.1359  0.1251  0.0736
  763SSM    PO4 9332  24.601   6.765   8.296  0.0406  0.0238  0.0532
  763SSM    OH1 9333  24.598   6.540   8.006 -0.1768  0.0734  0.0866
  763SSM    AM2 9334  24.822   6.669   7.865 -0.1814  0.0272 -0.0373
  763SSM    T1A 9335  24.454   6.462   7.716 -0.0045 -0.2092  0.0621
  763SSM    C2A 9336  24.323   6.512   7.332  0.2715 -0.3489  0.2801
  763SSM    C3A 9337  24.485   6.608   6.907 -0.1667  0.0771  0.0288
  763SSM    C4A 9338  24.659   6.621   6.435 -0.2921  0.1753  0.0252
  763SSM    C1B 9339  24.888   6.643   7.469 -0.2361  0.0139 -0.3235
  763SSM    C2B 9340  25.062   6.600   6.997  0.1045 -0.0032 -0.3020
  763SSM    C3B 9341  25.339   6.593   6.650  0.0902  0.0260 -0.1485
  763SSM    C4B 9342  25.587   6.561   6.212 -0.0636  0.1674  0.3205
  764SSM    NC3 9343   0.026  21.234   7.767 -0.2063  0.2173  0.2941
  764SSM    PO4 9344  -0.142  20.919   7.712  0.2096 -0.0675 -0.2722
  764SSM    OH1 9345  -0.339  20.977   7.350 -0.2178 -0.3004 -0.1221
  764SSM    AM2 9346  -0.104  20.832   7.215 -0.2504 -0.1979 -0.2524
  764SSM    T1A 9347  -0.487  21.023   7.051 -0.0435 -0.2688  0.2408
  764SSM    C2A 9348  -0.498  20.921   6.654  0.2005  0.3483  0.1623
  764SSM    C3A 9349  -0.364  20.999   6.221 -0.0197 -0.0460 -0.0322
  764SSM    C4A 9350  -0.537  20.695   5.799  0.1664  0.0473 -0.0765
  764SSM    C1B 9351   0.138  20.657   6.921 -0.2617 -0.1738  0.0985
  764SSM    C2B 9352  -0.047  20.649   6.415 -0.4318  0.0555 -0.0777
  764SSM    C3B 9353  -0.148  20.511   6.012  0.0490  0.4688  0.3944
  764SSM    C4B 9354  -0.276  20.261   5.620 -0.1052 -0.3826  0.1434
  765SSM    NC3 9355   3.757  18.960   7.595 -0.0451  0.0163  0.2306
  765SSM    PO4 9356   4.025  19.203   7.793  0.3156  0.3019 -0.0736
  765SSM    OH1 9357   4.110  19.308   7.457 -0.0360 -0.0922 -0.0755
  765SSM    AM2 9358   3.836  19.317   7.359 -0.1035  0.0055  0.2983
  765SSM    T1A 9359   4.214  19.155   7.173 -0.3016 -0.0187  0.0490
  765SSM    C2A 9360   4.212  19.049   6.775 -0.1996  0.0322 -0.1661
  765SSM    C3A 9361   4.141  18.968   6.303  0.2512 -0.0223 -0.1191
  765SSM    C4A 9362   4.121  18.971   5.817  0.0258 -0.5747 -0.3269
  765SSM    C1B 9363   3.635  19.112   7.059 -0.3808 -0.2842 -0.5028
  765SSM    C2B 9364   3.700  19.047   6.580 -0.0660  0.0389 -0.0239
  765SSM    C3B 9365   3.683  18.968   6.065 -0.2483  0.2595  0.0107
  765SSM    C4B 9366   3.710  19.172   5.623 -0.2901 -0.0708 -0.1853
  766SSM    NC3 9367   5.580  13.330   7.834 -0.3694 -0.0220  0.2756
  766SSM    PO4 9368   5.404  13.480   7.480 -0.3570  0.1076 -0.0660
  766SSM    OH1 9369   5.556  13.602   7.237 -0.0330 -0.3098 -0.1192
  766SSM    AM2 9370   5.323  13.774   7.117  0.1433  0.0056  0.2155
  766SSM    T1A 9371   5.726  13.595   6.936  0.2118 -0.0167  0.1791
  766SSM    C2A 9372   5.802  13.784   6.547  0.2784  0.0691  0.0895
  766SSM    C3A 9373   5.843  13.931   6.066 -0.1679 -0.2158 -0.4001
  766SSM    C4A 9374   5.826  13.975   5.616  0.1586  0.0116  0.0481
  766SSM    C1B 9375   5.406  13.993   6.786  0.2196 -0.0089 -0.0159
  766SSM    C2B 9376   4.960  14.159   6.563  0.2990 -0.2959 -0.1198
  766SSM    C3B 9377   4.574  14.410   6.309  0.0086 -0.1850  0.2359
  766SSM    C4B 9378   4.109  14.469   6.207 -0.1412 -0.2631  0.2521
  767SSM    NC3 9379   9.881  20.536   7.847  0.0294 -0.0720 -0.2950
  767SSM    PO4 9380   9.478  20.551   7.721  0.0868  0.1706 -0.1956
  767SSM    OH1 9381   9.415  20.331   7.378  0.3410 -0.1859 -0.3869
  767SSM    AM2 9382   9.293  20.585   7.267 -0.4724 -0.2310  0.0455
  767SSM    T1A 9383   9.338  20.228   7.076  0.1899 -0.4090  0.1441
  767SSM    C2A 9384   9.081  20.222   6.777 -0.1054 -0.1626 -0.1517
  767SSM    C3A 9385   9.085  20.288   6.252  0.0817 -0.0151  0.0741
  767SSM    C4A 9386   9.200  20.162   5.783  0.5086  0.2895  0.3727
  767SSM    C1B 9387   9.024  20.698   7.082  0.0379 -0.0023  0.2087
  767SSM    C2B 9388   8.775  20.657   6.666 -0.0745  0.2344  0.4205
  767SSM    C3B 9389   8.600  20.572   6.176 -0.2498  0.3644 -0.2621
  767SSM    C4B 9390   8.690  20.299   5.789 -0.2217 -0.1713  0.2669
  768SSM    NC3 9391  12.210   2.553   7.715  0.1135 -0.0071 -0.3111
  768SSM    PO4 9392  12.209   2.899   7.880  0.0983  0.0505  0.0575
  768SSM    OH1 9393  12.124   3.108   7.559  0.1391  0.2284 -0.3287
  768SSM    AM2 9394  11.898   2.925   7.477 -0.0461  0.0280  0.2767
  768SSM    T1A 9395  12.019   3.309   7.323  0.0751  0.4822  0.1615
  768SSM    C2A 9396  11.969   3.328   6.944  0.1617 -0.3528  0.2250
  768SSM    C3A 9397  11.925   3.428   6.484 -0.2092  0.0475 -0.0054
  768SSM    C4A 9398  11.900   3.621   6.080 -0.0014 -0.0561 -0.0039
  768SSM    C1B 9399  11.920   2.566   7.217  0.1688  0.0313 -0.0614
  768SSM    C2B 9400  11.847   2.379   6.773  0.0642 -0.3699 -0.0113
  768SSM    C3B 9401  11.856   2.208   6.305 -0.2321  0.0346  0.1333
  768SSM    C4B 9402  11.818   2.256   5.809  0.2021  0.0122 -0.3952
  769SSM    NC3 9403   1.401  13.444   7.385  0.2900  0.0404 -0.1479
  769SSM    PO4 9404   1.322  13.151   7.669  0.0284  0.2002  0.1927
  769SSM    OH1 9405   1.273  12.846   7.438 -0.2790  0.3487  0.1988
  769SSM    AM2 9406   1.161  13.038   7.238  0.3449 -0.1488  0.4106
  769SSM    T1A 9407   1.182  12.621   7.188  0.2697 -0.2577 -0.0600
  769SSM    C2A 9408   1.276  12.696   6.830 -0.0251  0.0567  0.2203
  769SSM    C3A 9409   1.401  12.653   6.374 -0.0017 -0.2768  0.3148
  769SSM    C4A 9410   1.435  12.511   5.914 -0.1028 -0.4366 -0.2874
  769SSM    C1B 9411   1.100  13.179   6.926  0.2772 -0.0420  0.4913
  769SSM    C2B 9412   0.877  13.352   6.461  0.1516 -0.0965  0.1051
  769SSM    C3B 9413   0.801  13.418   5.976  0.0825  0.0270 -0.1979
  769SSM    C4B 9414   0.613  13.267   5.581  0.0930  0.1140  0.2278
  770SSM    NC3 9415   0.838  10.849   7.526  0.1279  0.0243 -0.1591
  770SSM    PO4 9416   0.448  10.955   7.704  0.0451  0.0512  0.0762
  770SSM    OH1 9417   0.237  10.938   7.383 -0.1657  0.1998  0.1122
  770SSM    AM2 9418   0.491  10.919   7.198  0.1384  0.0594  0.0564
  770SSM    T1A 9419   0.179  11.130   7.114 -0.0449 -0.4223  0.0145
  770SSM    C2A 9420   0.185  11.313   6.747  0.1079 -0.0273  0.2512
  770SSM    C3A 9421   0.295  11.473   6.296  0.3861 -0.0108 -0.1558
  770SSM    C4A 9422   0.462  11.700   5.912  0.2773  0.2547 -0.1526
  770SSM    C1B 9423   0.525  10.876   6.794 -0.0542 -0.1768  0.0556
  770SSM    C2B 9424   0.500  10.956   6.294 -0.0987  0.0912 -0.1749
  770SSM    C3B 9425   0.404  11.195   5.875  0.1286  0.4549 -0.3116
  770SSM    C4B 9426   0.638  11.342   5.448 -0.0000  0.2954 -0.1133
  771SSM    NC3 9427  20.287  23.193   8.294 -0.1815 -0.1935 -0.0482
  771SSM    PO4 9428  20.514  23.448   8.038  0.1221  0.2732 -0.2660
  771SSM    OH1 9429  20.619  23.580   7.727  0.1156  0.2183  0.0291
  771SSM    AM2 9430  20.390  23.806   7.717 -0.0409 -0.0825  0.2681
  771SSM    T1A 9431  20.594  23.669   7.393  0.2228  0.0205  0.1224
  771SSM    C2A 9432  20.487  23.534   7.016 -0.1717 -0.0793 -0.2515
  771SSM    C3A 9433  20.331  23.406   6.611  0.0392  0.1347 -0.0825
  771SSM    C4A 9434  20.090  23.340   6.189  0.0654 -0.0579  0.0138
  771SSM    C1B 9435  20.202  24.162   7.498 -0.1363  0.2432 -0.1451
  771SSM    C2B 9436  20.066  24.521   7.223 -0.1890 -0.0323  0.0810
  771SSM    C3B 9437  20.100  24.587   6.787  0.2944  0.3988  0.0914
  771SSM    C4B 9438  20.072  24.715   6.323 -0.0504 -0.1150 -0.2721
  772SSM    NC3 9439  22.744  15.477   7.917 -0.1620 -0.1210  0.0118
  772SSM    PO4 9440  22.894  15.603   7.575  0.0056  0.0818  0.1158
  772SSM    OH1 9441  22.971  15.437   7.279  0.1054  0.0872 -0.1482
  772SSM    AM2 9442  22.788  15.572   7.077  0.4343  0.2339 -0.0313
  772SSM    T1A 9443  23.143  15.312   6.989  0.1243  0.4569 -0.3159
  772SSM    C2A 9444  23.345  15.415   6.719 -0.0994  0.0613 -0.1685
  772SSM    C3A 9445  23.655  15.283   6.419 -0.1150 -0.1806 -0.1776
  772SSM    C4A 9446  23.881  15.434   6.047 -0.2037 -0.2686  0.1837
  772SSM    C1B 9447  22.782  15.711   6.721 -0.1833  0.3310 -0.0537
  772SSM    C2B 9448  22.895  15.551   6.226  0.3102  0.1267 -0.0099
  772SSM    C3B 9449  22.992  15.319   5.807 -0.0282  0.3076  0.0188
  772SSM    C4B 9450  22.978  15.110   5.361  0.0762 -0.1281  0.1616
  773SSM    NC3 9451   5.070  12.229   7.826  0.1467 -0.1226 -0.3197
  773SSM    PO4 9452   5.048  11.912   7.587 -0.2581 -0.2166 -0.1873
  773SSM    OH1 9453   5.106  12.115   7.298  0.0820  0.0585  0.2015
  773SSM    AM2 9454   5.013  11.880   7.137 -0.0173 -0.0124  0.0872
  773SSM    T1A 9455   5.357  12.042   7.063  0.3078  0.1587 -0.0731
  773SSM    C2A 9456   5.487  11.976   6.705  0.0746  0.2351  0.1777
  773SSM    C3A 9457   5.454  11.962   6.199  0.1086 -0.0550  0.2374
  773SSM    C4A 9458   5.127  11.901   5.823  0.0227  0.1805 -0.1002
  773SSM    C1B 9459   5.057  11.712   6.797 -0.0016 -0.2186  0.3144
  773SSM    C2B 9460   4.862  11.637   6.320  0.2621  0.0764  0.1250
  773SSM    C3B 9461   4.665  11.376   5.936  0.0554 -0.1040 -0.1199
  773SSM    C4B 9462   4.351  11.232   5.627  0.1866 -0.4550  0.0796
  774SSM    NC3 9463   5.368   8.429   7.731  0.1586 -0.1763  0.0642
  774SSM    PO4 9464   4.994   8.478   7.601  0.2253  0.0177  0.0931
  774SSM    OH1 9465   5.024   8.523   7.286  0.0314 -0.5314  0.2649
  774SSM    AM2 9466   4.889   8.294   7.131 -0.0524  0.1279 -0.3239
  774SSM    T1A 9467   5.044   8.687   6.973 -0.0048 -0.3180  0.2712
  774SSM    C2A 9468   4.835   8.573   6.640  0.0971  0.1406 -0.1324
  774SSM    C3A 9469   4.698   8.584   6.130 -0.2832  0.3476  0.0352
  774SSM    C4A 9470   4.663   8.762   5.667 -0.1190  0.0730  0.2355
  774SSM    C1B 9471   4.568   8.184   6.925 -0.5162 -0.3772  0.0171
  774SSM    C2B 9472   4.288   8.225   6.528 -0.0192  0.1408 -0.1448
  774SSM    C3B 9473   4.131   8.300   6.102 -0.1635 -0.1287  0.2493
  774SSM    C4B 9474   4.265   8.396   5.630 -0.3212 -0.3507 -0.1645
  775SSM    NC3 9475   5.342   1.584   8.194  0.0446 -0.1155 -0.3930
  775SSM    PO4 9476   5.617   1.429   7.961  0.3264  0.0178 -0.2324
  775SSM    OH1 9477   5.410   1.205   7.837 -0.1316  0.1018 -0.0369
  775SSM    AM2 9478   5.214   1.336   7.654  0.2528 -0.0853 -0.0056
  775SSM    T1A 9479   5.458   1.019   7.560  0.0116  0.3344  0.1422
  775SSM    C2A 9480   5.458   0.897   7.184 -0.0876  0.2519  0.2428
  775SSM    C3A 9481   5.478   0.731   6.703  0.0137  0.3934 -0.1127
  775SSM    C4A 9482   5.617   0.529   6.320 -0.0248  0.0315 -0.0707
  775SSM    C1B 9483   5.075   1.444   7.314 -0.0798  0.3551  0.0168
  775SSM    C2B 9484   5.118   1.617   6.853  0.1061  0.1131  0.2081
  775SSM    C3B 9485   5.192   1.710   6.392  0.1326 -0.1302  0.2305
  775SSM    C4B 9486   5.461   2.055   6.093 -0.0718  0.2661 -0.0873
  776SSM    NC3 9487  26.096   8.142   8.060 -0.3699  0.1109  0.0587
  776SSM    PO4 9488  26.156   8.247   7.681  0.1597 -0.3032  0.1592
  776SSM    OH1 9489  26.032   7.987   7.424  0.3596  0.2774  0.0763
  776SSM    AM2 9490  26.138   8.169   7.207 -0.2428 -0.0183 -0.2663
  776SSM    T1A 9491  25.754   7.885   7.221  0.4084  0.0691  0.3741
  776SSM    C2A 9492  25.548   7.972   6.895 -0.1418  0.1578 -0.1342
  776SSM    C3A 9493  25.291   7.942   6.498 -0.1419 -0.4150 -0.1865
  776SSM    C4A 9494  25.306   7.840   6.062  0.0450 -0.3052  0.1047
  776SSM    C1B 9495  26.118   8.100   6.867 -0.0090 -0.0025  0.3360
  776SSM    C2B 9496  26.145   8.041   6.289  0.1122  0.1044 -0.1708
  776SSM    C3B 9497  26.235   8.134   5.876 -0.2434 -0.0905  0.1245
  776SSM    C4B 9498  26.081   7.895   5.454 -0.0168 -0.0602 -0.4096
  777SSM    NC3 9499   6.263  13.686   7.554 -0.0018 -0.1416 -0.0273
  777SSM    PO4 9500   6.241  13.983   7.282 -0.0493  0.0200 -0.1282
  777SSM    OH1 9501   6.320  13.930   6.917  0.1957 -0.3267  0.1725
  777SSM    AM2 9502   6.503  14.155   6.888 -0.0081  0.1555  0.1682
  777SSM    T1A 9503   6.334  13.900   6.582 -0.2030  0.0573  0.2028
  777SSM    C2A 9504   6.401  13.927   6.199  0.0020 -0.0676  0.3820
  777SSM    C3A 9505   6.403  13.947   5.660 -0.0403  0.0667 -0.1399
  777SSM    C4A 9506   6.393  14.105   5.196 -0.0845 -0.1098 -0.2522
  777SSM    C1B 9507   6.664  14.288   6.500  0.3462 -0.1070  0.2494
  777SSM    C2B 9508   6.658  14.343   6.000 -0.0678  0.1534  0.1474
  777SSM    C3B 9509   6.742  14.382   5.539 -0.0987  0.0257  0.1836
  777SSM    C4B 9510   6.776  14.560   5.035 -0.2350 -0.1629  0.0544
  778SSM    NC3 9511  10.044  13.612   7.517 -0.1824  0.0061  0.0438
  778SSM    PO4 9512  10.464  13.572   7.559  0.4629 -0.2086  0.1547
  778SSM    OH1 9513  10.566  13.465   7.254  0.0055  0.0446  0.2331
  778SSM    AM2 9514  10.319  13.583   7.148  0.0895 -0.0873  0.2541
  778SSM    T1A 9515  10.654  13.464   6.938 -0.1173  0.3949  0.0405
  778SSM    C2A 9516  10.623  13.497   6.512 -0.0778 -0.3284  0.1057
  778SSM    C3A 9517  10.769  13.514   6.010  0.1522 -0.0747  0.3115
  778SSM    C4A 9518  10.737  13.599   5.547  0.0872 -0.1877 -0.0361
  778SSM    C1B 9519  10.203  13.634   6.813  0.1831  0.2829  0.1881
  778SSM    C2B 9520  10.261  13.756   6.302 -0.2270 -0.1146  0.3819
  778SSM    C3B 9521  10.325  13.763   5.841  0.1876  0.3945 -0.1157
  778SSM    C4B 9522  10.079  13.674   5.401 -0.1351  0.0498 -0.2867
  779SSM    NC3 9523  14.693  23.631   7.631 -0.0666  0.1259 -0.0105
  779SSM    PO4 9524  14.314  23.662   7.503 -0.2260 -0.3065 -0.2100
  779SSM    OH1 9525  14.189  23.393   7.304  0.0639 -0.0859  0.2097
  779SSM    AM2 9526  14.461  23.306   7.183  0.3654  0.2124  0.1401
  779SSM    T1A 9527  14.048  23.356   6.993 -0.0505 -0.5992 -0.3077
  779SSM    C2A 9528  13.979  23.232   6.598  0.0146  0.0618 -0.3652
  779SSM    C3A 9529  13.992  23.242   6.102 -0.2096 -0.1048 -0.2192
  779SSM    C4A 9530  13.807  23.104   5.601  0.1945 -0.2098 -0.4272
  779SSM    C1B 9531  14.668  23.135   6.961  0.1319  0.3503  0.1361
  779SSM    C2B 9532  14.801  22.718   6.605 -0.1330 -0.0813 -0.3453
  779SSM    C3B 9533  15.190  22.456   6.598 -0.3496 -0.0498  0.1187
  779SSM    C4B 9534  15.630  22.273   6.559 -0.2736  0.1032 -0.1369
  780SSM    NC3 9535  26.369  27.560   7.873 -0.1144 -0.2452  0.2912
  780SSM    PO4 9536  26.139  27.563   7.602  0.0290 -0.1047 -0.0648
  780SSM    OH1 9537  26.417  27.586   7.291  0.2340  0.0917 -0.1868
  780SSM    AM2 9538  26.184  27.691   7.129 -0.1138  0.3944 -0.1719
  780SSM    T1A 9539  26.604  27.545   6.992  0.2822  0.1297 -0.2126
  780SSM    C2A 9540  26.638  27.502   6.598  0.1517 -0.2642 -0.1332
  780SSM    C3A 9541  26.667  27.490   6.084 -0.0863 -0.4436  0.1050
  780SSM    C4A 9542  26.641  27.540   5.595  0.2188  0.0313 -0.0679
  780SSM    C1B 9543  26.117  27.716   6.789  0.0466  0.2505 -0.2179
  780SSM    C2B 9544  26.266  27.743   6.327  0.4597 -0.0153 -0.0345
  780SSM    C3B 9545  26.335  27.922   5.879  0.4050 -0.0630 -0.2189
  780SSM    C4B 9546  26.367  27.935   5.372 -0.1999  0.1021 -0.0260
  781SSM    NC3 9547   0.686   7.735   8.139  0.1849 -0.1595  0.3830
  781SSM    PO4 9548   0.690   7.349   8.129 -0.0958 -0.1550  0.1981
  781SSM    OH1 9549   0.594   7.259   7.796 -0.0898  0.0359 -0.0435
  781SSM    AM2 9550   0.521   7.549   7.710  0.3217 -0.2887 -0.2108
  781SSM    T1A 9551   0.600   7.219   7.455  0.0076  0.0531 -0.4810
  781SSM    C2A 9552   0.728   7.124   7.065 -0.0244 -0.0718  0.0493
  781SSM    C3A 9553   0.962   6.894   6.674 -0.4360 -0.3967  0.1035
  781SSM    C4A 9554   1.171   6.672   6.368 -0.2704  0.4419 -0.1535
  781SSM    C1B 9555   0.387   7.704   7.395 -0.0175 -0.0311 -0.2232
  781SSM    C2B 9556   0.437   7.511   6.930  0.0606 -0.1140  0.1271
  781SSM    C3B 9557   0.529   7.517   6.427  0.1986  0.0301  0.0530
  781SSM    C4B 9558   0.696   7.367   5.974  0.0167 -0.1679 -0.2164
  782SSM    NC3 9559   2.851  21.639   8.414 -0.1159 -0.1297  0.1523
  782SSM    PO4 9560   2.659  21.767   8.065 -0.1465  0.3674  0.0449
  782SSM    OH1 9561   2.694  22.031   7.790 -0.1884 -0.1428  0.5525
  782SSM    AM2 9562   2.838  21.802   7.600  0.0690  0.0725 -0.3661
  782SSM    T1A 9563   2.868  22.255   7.597  0.1278  0.5781 -0.0121
  782SSM    C2A 9564   2.943  22.281   7.241  0.0678 -0.0425 -0.2429
  782SSM    C3A 9565   3.052  22.328   6.718  0.1132 -0.2172 -0.1732
  782SSM    C4A 9566   3.011  22.348   6.224  0.0811 -0.0130 -0.4265
  782SSM    C1B 9567   2.787  21.737   7.237  0.1793  0.0787 -0.3308
  782SSM    C2B 9568   2.880  21.840   6.791  0.3379  0.0123 -0.4642
  782SSM    C3B 9569   2.841  21.709   6.315 -0.0035  0.1089 -0.0231
  782SSM    C4B 9570   3.205  21.756   5.944 -0.0456  0.2555  0.1009
  783SSM    NC3 9571   0.997  23.297   7.409  0.0333  0.2756  0.1948
  783SSM    PO4 9572   0.820  23.431   7.758 -0.0638  0.0882 -0.2055
  783SSM    OH1 9573   0.618  23.725   7.601 -0.0853 -0.1385  0.1110
  783SSM    AM2 9574   0.544  23.560   7.358 -0.0209 -0.1767 -0.0039
  783SSM    T1A 9575   0.561  23.979   7.380  0.2680 -0.1476 -0.0571
  783SSM    C2A 9576   0.643  23.987   6.982 -0.0432  0.1171 -0.1657
  783SSM    C3A 9577   0.668  23.948   6.482  0.0119 -0.1962 -0.1025
  783SSM    C4A 9578   0.656  23.900   5.967 -0.1808 -0.4495 -0.0838
  783SSM    C1B 9579   0.604  23.428   7.019 -0.2215 -0.1611 -0.0105
  783SSM    C2B 9580   0.778  23.460   6.569 -0.2555 -0.0758 -0.0248
  783SSM    C3B 9581   0.861  23.394   6.117  0.2176 -0.2987 -0.0834
  783SSM    C4B 9582   0.929  23.345   5.608  0.2071  0.0844  0.0767
  784SSM    NC3 9583  18.803  26.222   7.520 -0.0963  0.0286  0.0660
  784SSM    PO4 9584  18.804  26.545   7.785  0.0089 -0.0333  0.1102
  784SSM    OH1 9585  18.960  26.676   7.480 -0.1433 -0.1347  0.0865
  784SSM    AM2 9586  18.715  26.620   7.312 -0.1354  0.3694 -0.0683
  784SSM    T1A 9587  19.116  26.796   7.188 -0.3140 -0.3700  0.0291
  784SSM    C2A 9588  19.110  27.065   6.906  0.0778  0.0630 -0.1124
  784SSM    C3A 9589  19.114  26.839   6.468  0.0269 -0.1496  0.2556
  784SSM    C4A 9590  18.987  26.818   6.007  0.2281  0.2258  0.1874
  784SSM    C1B 9591  18.437  26.482   7.040  0.1125  0.0255 -0.0081
  784SSM    C2B 9592  18.542  26.551   6.552  0.2246  0.1834 -0.2622
  784SSM    C3B 9593  18.568  26.588   6.047 -0.0808  0.0512  0.4117
  784SSM    C4B 9594  18.405  26.370   5.580  0.1188 -0.4503 -0.1035
  785SSM    NC3 9595  13.181   6.247   7.307 -0.2204  0.0516  0.3437
  785SSM    PO4 9596  12.956   6.444   7.588  0.1088 -0.0579 -0.4071
  785SSM    OH1 9597  12.969   6.810   7.474  0.3077  0.0351 -0.1234
  785SSM    AM2 9598  13.129   6.716   7.215  0.3963  0.1866 -0.0624
  785SSM    T1A 9599  13.205   7.061   7.404  0.2828  0.0498  0.0747
  785SSM    C2A 9600  13.592   7.117   7.232 -0.2518 -0.1223 -0.0299
  785SSM    C3A 9601  13.704   7.138   6.764  0.0568 -0.1287 -0.0403
  785SSM    C4A 9602  13.850   7.091   6.340  0.0564  0.0458 -0.0251
  785SSM    C1B 9603  13.220   6.924   6.917 -0.0477  0.1841 -0.2385
  785SSM    C2B 9604  13.378   6.924   6.447  0.0960 -0.1112  0.0265
  785SSM    C3B 9605  13.491   6.940   6.018 -0.3708  0.2105 -0.0655
  785SSM    C4B 9606  13.950   7.019   5.826 -0.0060  0.1376 -0.0244
  786SSM    NC3 9607   8.736  15.703   7.924  0.1001 -0.2069 -0.0810
  786SSM    PO4 9608   9.039  15.514   8.030  0.1855  0.0897  0.1537
  786SSM    OH1 9609   9.179  15.479   7.703  0.0723  0.2307 -0.0574
  786SSM    AM2 9610   8.915  15.514   7.546  0.4861 -0.0128  0.0325
  786SSM    T1A 9611   9.337  15.369   7.395  0.2541 -0.2694  0.4077
  786SSM    C2A 9612   9.325  15.346   7.023  0.0188  0.2774  0.4329
  786SSM    C3A 9613   9.390  15.310   6.530 -0.1386 -0.1634  0.2592
  786SSM    C4A 9614   9.593  15.263   6.102 -0.2527 -0.0598  0.0714
  786SSM    C1B 9615   8.843  15.539   7.151 -0.1711 -0.2747  0.0528
  786SSM    C2B 9616   8.937  15.465   6.655  0.0796  0.0948 -0.1086
  786SSM    C3B 9617   9.045  15.433   6.180  0.0592 -0.2147 -0.1003
  786SSM    C4B 9618   8.970  15.605   5.660  0.1210 -0.0361 -0.0335
  787SSM    NC3 9619  19.164  21.662   8.168 -0.0047 -0.0206 -0.0328
  787SSM    PO4 9620  19.390  21.360   7.977 -0.0562 -0.0084 -0.0118
  787SSM    OH1 9621  19.669  21.350   7.719  0.1470 -0.2676 -0.4475
  787SSM    AM2 9622  19.469  21.552   7.599  0.0615 -0.0509 -0.1761
  787SSM    T1A 9623  19.808  21.418   7.414  0.2748 -0.2696  0.0351
  787SSM    C2A 9624  19.894  21.488   7.025 -0.0903  0.2654 -0.3003
  787SSM    C3A 9625  19.973  21.304   6.594 -0.1976  0.0737  0.1239
  787SSM    C4A 9626  19.964  20.973   6.172 -0.0307  0.1088  0.2419
  787SSM    C1B 9627  19.312  21.698   7.306  0.1438 -0.0375 -0.0630
  787SSM    C2B 9628  19.322  21.496   6.812  0.0016  0.1029 -0.2094
  787SSM    C3B 9629  19.358  21.629   6.325  0.2170  0.0664 -0.1637
  787SSM    C4B 9630  19.429  21.961   5.998 -0.2100 -0.1944 -0.1664
  788SSM    NC3 9631   2.142  12.036   7.677 -0.1156 -0.1279  0.1352
  788SSM    PO4 9632   1.933  11.679   7.710  0.0279  0.1378 -0.0700
  788SSM    OH1 9633   1.928  11.567   7.344  0.0243 -0.2106  0.0725
  788SSM    AM2 9634   2.091  11.796   7.270 -0.1708 -0.0044 -0.3493
  788SSM    T1A 9635   1.938  11.411   7.038 -0.2015  0.3389 -0.1580
  788SSM    C2A 9636   1.968  11.167   6.675 -0.0294 -0.1628  0.1989
  788SSM    C3A 9637   1.992  10.888   6.246  0.1591 -0.2065 -0.1096
  788SSM    C4A 9638   2.217  10.513   6.073 -0.0720 -0.0464  0.1507
  788SSM    C1B 9639   2.372  12.048   7.183 -0.0209  0.2902 -0.0619
  788SSM    C2B 9640   2.311  12.495   6.867 -0.0909 -0.1076 -0.3923
  788SSM    C3B 9641   2.285  12.505   6.421 -0.0693  0.1256  0.0365
  788SSM    C4B 9642   2.266  12.664   5.939  0.0922 -0.0331  0.2598
  789SSM    NC3 9643  11.531  18.462   7.725  0.2801 -0.1241 -0.2334
  789SSM    PO4 9644  11.339  18.102   7.633 -0.6233 -0.4167 -0.0813
  789SSM    OH1 9645  11.264  18.172   7.268  0.0702 -0.3011 -0.2389
  789SSM    AM2 9646  11.504  18.358   7.277  0.0597  0.2319 -0.0343
  789SSM    T1A 9647  11.274  18.151   6.937  0.0351  0.1925 -0.0947
  789SSM    C2A 9648  11.224  18.198   6.552 -0.2699  0.3320  0.0617
  789SSM    C3A 9649  11.360  18.262   6.124  0.3059 -0.2587 -0.2019
  789SSM    C4A 9650  11.455  18.481   5.684 -0.2108 -0.1727  0.4429
  789SSM    C1B 9651  11.852  18.458   7.092  0.4012 -0.0475 -0.0913
  789SSM    C2B 9652  12.184  18.422   6.659 -0.3649  0.1256  0.0156
  789SSM    C3B 9653  12.315  18.526   6.237 -0.0816  0.3522  0.2010
  789SSM    C4B 9654  12.393  18.431   5.811 -0.0883 -0.2270  0.1273
  790SSM    NC3 9655  27.276   3.766   7.956  0.0608  0.0150 -0.1222
  790SSM    PO4 9656  27.617   3.684   7.894  0.1181 -0.1550  0.0442
  790SSM    OH1 9657  27.733   3.685   7.583  0.3497  0.2180 -0.1530
  790SSM    AM2 9658  27.535   3.476   7.451 -0.0893 -0.0047 -0.0031
  790SSM    T1A 9659  27.887   3.775   7.311 -0.0957  0.1420  0.2086
  790SSM    C2A 9660  27.986   3.804   6.939  0.2248 -0.1836  0.4201
  790SSM    C3A 9661  28.098   3.982   6.435  0.0833  0.1213  0.1519
  790SSM    C4A 9662  28.134   3.917   5.972 -0.4615  0.1889  0.1051
  790SSM    C1B 9663  27.566   3.349   7.157  0.1320 -0.1808 -0.0703
  790SSM    C2B 9664  27.603   3.237   6.690  0.1151 -0.0330 -0.2703
  790SSM    C3B 9665  27.446   3.119   6.296 -0.2303  0.2242  0.1061
  790SSM    C4B 9666  27.218   3.107   5.906 -0.2457 -0.1113 -0.1759
  791SSM    NC3 9667   6.176   6.120   7.638 -0.1511 -0.0634 -0.0204
  791SSM    PO4 9668   6.486   6.277   7.504  0.2960 -0.0748 -0.1010
  791SSM    OH1 9669   6.477   6.363   7.154 -0.4306  0.1380 -0.2022
  791SSM    AM2 9670   6.220   6.210   7.075 -0.1216  0.0282  0.3696
  791SSM    T1A 9671   6.381   6.565   6.882  0.0036 -0.0492 -0.0987
  791SSM    C2A 9672   6.287   6.724   6.507  0.2730 -0.2259  0.2636
  791SSM    C3A 9673   6.099   6.647   6.077  0.1721  0.0835  0.4631
  791SSM    C4A 9674   5.802   6.332   5.790  0.1230 -0.0918 -0.3358
  791SSM    C1B 9675   6.123   6.179   6.721  0.0139 -0.1457 -0.0208
  791SSM    C2B 9676   6.034   6.118   6.233  0.2581  0.2935 -0.3496
  791SSM    C3B 9677   6.118   5.929   5.759  0.1168 -0.0832 -0.1726
  791SSM    C4B 9678   5.982   5.956   5.322  0.3497 -0.2074  0.1098
  792SSM    NC3 9679  12.824  21.751   7.996  0.2423  0.0547  0.0275
  792SSM    PO4 9680  12.882  21.521   7.674  0.1805 -0.0567  0.1282
  792SSM    OH1 9681  12.654  21.444   7.342 -0.0365 -0.1609 -0.2059
  792SSM    AM2 9682  12.855  21.608   7.215 -0.2071 -0.2036 -0.0158
  792SSM    T1A 9683  12.601  21.332   7.009 -0.2815 -0.1249 -0.0593
  792SSM    C2A 9684  12.627  21.351   6.633 -0.0562 -0.1199 -0.0427
  792SSM    C3A 9685  12.608  21.497   6.204  0.0457 -0.2182  0.0990
  792SSM    C4A 9686  12.365  21.799   5.912  0.1672 -0.2265  0.1365
  792SSM    C1B 9687  13.028  21.651   6.916  0.2923  0.1849 -0.1048
  792SSM    C2B 9688  13.010  21.675   6.438  0.0322  0.4608  0.1418
  792SSM    C3B 9689  13.022  21.527   5.951  0.1036 -0.1170 -0.0699
  792SSM    C4B 9690  13.322  21.719   5.616 -0.0501 -0.1716  0.1996
  793SSM    NC3 9691  16.438   6.702   7.449 -0.0260 -0.1020 -0.0814
  793SSM    PO4 9692  16.529   6.990   7.155 -0.1482  0.1390 -0.0109
  793SSM    OH1 9693  16.584   6.968   6.782 -0.2750  0.1823 -0.0038
  793SSM    AM2 9694  16.328   6.864   6.730  0.2638 -0.1540 -0.1497
  793SSM    T1A 9695  16.562   6.968   6.442 -0.1786  0.1992  0.3247
  793SSM    C2A 9696  16.343   6.939   6.116  0.4240 -0.0060  0.2315
  793SSM    C3A 9697  16.166   6.708   5.717  0.0400  0.0857  0.2243
  793SSM    C4A 9698  16.142   6.517   5.267 -0.2285  0.1371  0.0924
  793SSM    C1B 9699  16.207   6.667   6.484 -0.1357 -0.1393  0.3008
  793SSM    C2B 9700  15.923   6.506   6.039  0.1597  0.1405 -0.0442
  793SSM    C3B 9701  15.441   6.321   5.890  0.1392 -0.2738 -0.0540
  793SSM    C4B 9702  14.898   6.251   5.918 -0.3035 -0.1771 -0.1015
  794SSM    NC3 9703   2.851   3.568   7.809  0.0823  0.0979 -0.1124
  794SSM    PO4 9704   2.874   3.179   7.868  0.0011 -0.0968 -0.0172
  794SSM    OH1 9705   2.754   3.053   7.529 -0.0424 -0.2301  0.2322
  794SSM    AM2 9706   2.611   3.316   7.495 -0.2507  0.0773  0.0738
  794SSM    T1A 9707   2.789   3.036   7.189 -0.0443  0.0638  0.3095
  794SSM    C2A 9708   2.842   3.076   6.813  0.2311 -0.0598  0.0382
  794SSM    C3A 9709   2.681   3.439   6.374 -0.1166  0.1229 -0.1763
  794SSM    C4A 9710   2.516   3.734   6.035  0.2688 -0.1799 -0.0014
  794SSM    C1B 9711   2.498   3.508   7.150  0.0217 -0.3196 -0.1535
  794SSM    C2B 9712   2.726   3.784   6.795  0.1426 -0.2961  0.1369
  794SSM    C3B 9713   2.898   3.886   6.357  0.0915 -0.2656  0.0216
  794SSM    C4B 9714   2.946   4.085   5.934  0.1158 -0.2309  0.1684
  795SSM    NC3 9715  16.780  16.561   8.179  0.1176 -0.2072  0.3023
  795SSM    PO4 9716  16.491  16.771   8.062 -0.2557 -0.3937 -0.1415
  795SSM    OH1 9717  16.221  16.672   7.841  0.2798  0.1582 -0.0418
  795SSM    AM2 9718  16.357  16.633   7.587  0.3210 -0.2501  0.1318
  795SSM    T1A 9719  15.909  16.682   7.645  0.0746 -0.2790 -0.5815
  795SSM    C2A 9720  15.797  16.747   7.286 -0.0603  0.2478 -0.0028
  795SSM    C3A 9721  15.907  16.617   6.827 -0.2497  0.1893 -0.1120
  795SSM    C4A 9722  16.103  16.564   6.392  0.1178  0.2859 -0.1497
  795SSM    C1B 9723  16.304  16.631   7.153  0.0796 -0.0047  0.2713
  795SSM    C2B 9724  16.409  16.905   6.650 -0.1205  0.2808  0.0263
  795SSM    C3B 9725  16.497  16.879   6.149  0.0323 -0.3219  0.0107
  795SSM    C4B 9726  16.498  16.519   5.743 -0.2812 -0.1677  0.0320
  796SSM    NC3 9727  21.878   7.228   7.561  0.3338  0.0623  0.1651
  796SSM    PO4 9728  22.139   7.560   7.627  0.0444  0.1766 -0.0545
  796SSM    OH1 9729  22.209   7.729   7.289 -0.1208 -0.0566 -0.6201
  796SSM    AM2 9730  22.130   7.426   7.199  0.0520 -0.0963  0.0767
  796SSM    T1A 9731  22.266   7.895   6.987 -0.1611  0.1297  0.1370
  796SSM    C2A 9732  22.383   7.907   6.600  0.0681 -0.3554 -0.0754
  796SSM    C3A 9733  22.485   7.789   6.180 -0.1130  0.0992  0.0986
  796SSM    C4A 9734  22.813   7.635   5.905 -0.1840 -0.0082 -0.1544
  796SSM    C1B 9735  22.348   7.210   7.054  0.2911  0.0986 -0.1139
  796SSM    C2B 9736  22.473   6.932   6.676 -0.0965  0.1840  0.0512
  796SSM    C3B 9737  22.650   6.736   6.278  0.2783 -0.2321  0.0211
  796SSM    C4B 9738  22.699   6.550   5.846 -0.1355 -0.0034 -0.2778
  797SSM    NC3 9739   1.207  12.251   7.976  0.0554 -0.2352 -0.0875
  797SSM    PO4 9740   0.892  12.183   7.718 -0.4277  0.2924 -0.0392
  797SSM    OH1 9741   0.897  12.287   7.349 -0.0666  0.0970  0.3323
  797SSM    AM2 9742   0.596  12.332   7.371  0.0534 -0.0106  0.1964
  797SSM    T1A 9743   0.851  12.335   7.040  0.2725  0.0830  0.0016
  797SSM    C2A 9744   0.713  12.385   6.663  0.0971 -0.1462 -0.0922
  797SSM    C3A 9745   0.896  12.667   6.360  0.3394 -0.1846  0.0930
  797SSM    C4A 9746   0.975  12.904   5.875 -0.0805 -0.0044  0.1591
  797SSM    C1B 9747   0.360  12.409   7.104  0.2278 -0.3500  0.1102
  797SSM    C2B 9748   0.270  12.603   6.605  0.2501  0.0525  0.0413
  797SSM    C3B 9749   0.027  12.831   6.284 -0.1093  0.1479 -0.1630
  797SSM    C4B 9750  -0.355  12.704   5.960 -0.1622  0.1171  0.5589
  798SSM    NC3 9751  17.572  15.553   7.601 -0.1066 -0.1354  0.0390
  798SSM    PO4 9752  17.229  15.461   7.531  0.0172  0.3993  0.0440
  798SSM    OH1 9753  17.287  15.667   7.236 -0.1089  0.1186  0.3168
  798SSM    AM2 9754  17.131  15.905   7.306 -0.3867 -0.0633  0.0911
  798SSM    T1A 9755  17.290  15.778   6.940 -0.0654 -0.0624 -0.0111
  798SSM    C2A 9756  17.200  15.792   6.562 -0.2887 -0.1162  0.0307
  798SSM    C3A 9757  16.947  15.632   6.125  0.0888  0.3966  0.0886
  798SSM    C4A 9758  16.755  15.541   5.725  0.4577  0.1483  0.1219
  798SSM    C1B 9759  17.169  16.224   7.154  0.1593 -0.0406  0.0445
  798SSM    C2B 9760  17.303  16.454   6.736  0.0718  0.2058  0.2550
  798SSM    C3B 9761  17.370  16.787   6.433 -0.1198  0.0663  0.3832
  798SSM    C4B 9762  17.579  17.033   6.074  0.0138 -0.1432  0.0534
  799SSM    NC3 9763  22.496   8.586   7.377 -0.1275  0.0897 -0.0880
  799SSM    PO4 9764  22.770   8.835   7.544  0.0001 -0.0924  0.0048
  799SSM    OH1 9765  23.004   8.632   7.282 -0.0215  0.0545  0.0036
  799SSM    AM2 9766  22.877   8.861   7.115  0.5206  0.1822 -0.3162
  799SSM    T1A 9767  23.069   8.384   7.026 -0.3476 -0.0695 -0.4165
  799SSM    C2A 9768  23.047   8.386   6.662  0.0238  0.2160  0.0578
  799SSM    C3A 9769  23.070   8.500   6.218  0.1323 -0.4177  0.2270
  799SSM    C4A 9770  23.311   8.490   5.810 -0.2931  0.2249 -0.0274
  799SSM    C1B 9771  22.797   8.919   6.804  0.0629  0.0787  0.0801
  799SSM    C2B 9772  22.511   9.045   6.346  0.0325 -0.1170  0.2948
  799SSM    C3B 9773  22.407   9.074   5.903 -0.4190 -0.4178  0.0247
  799SSM    C4B 9774  22.374   8.951   5.390 -0.2123 -0.2225 -0.1054
  800SSM    NC3 9775   6.815   0.254   7.351  0.0703  0.1433  0.1217
  800SSM    PO4 9776   6.504   0.078   7.526  0.1566 -0.1640 -0.0757
  800SSM    OH1 9777   6.418  -0.090   7.240  0.0771  0.0658 -0.1218
  800SSM    AM2 9778   6.700  -0.192   7.149  0.2869  0.3637 -0.2029
  800SSM    T1A 9779   6.375  -0.068   6.908 -0.4578  0.1205  0.1037
  800SSM    C2A 9780   6.421  -0.037   6.516 -0.0049  0.3232 -0.1856
  800SSM    C3A 9781   6.460  -0.122   6.033 -0.0214 -0.0205 -0.2449
  800SSM    C4A 9782   6.615  -0.539   5.753  0.0145 -0.0346  0.0691
  800SSM    C1B 9783   7.006  -0.549   7.035  0.3199  0.1518  0.0230
  800SSM    C2B 9784   7.209  -0.931   6.827 -0.1017  0.0203 -0.0600
  800SSM    C3B 9785   7.442  -1.097   6.416 -0.1923 -0.0079 -0.2098
  800SSM    C4B 9786   7.614  -1.416   5.970 -0.0569 -0.1112 -0.0247
  801SSM    NC3 9787  20.324   3.548   7.582  0.1976 -0.0873 -0.2198
  801SSM    PO4 9788  20.227   3.190   7.561  0.0209 -0.1752  0.3162
  801SSM    OH1 9789  20.152   3.218   7.199  0.1525 -0.0142  0.1200
  801SSM    AM2 9790  20.428   3.329   7.115  0.2509  0.2693 -0.3576
  801SSM    T1A 9791  20.209   3.158   6.850  0.1950  0.0251  0.2990
  801SSM    C2A 9792  20.194   3.253   6.454  0.2001  0.1983  0.1956
  801SSM    C3A 9793  20.278   3.103   5.940  0.0398 -0.1672  0.1371
  801SSM    C4A 9794  20.286   2.965   5.434  0.3277 -0.1483  0.0592
  801SSM    C1B 9795  20.615   3.424   6.691  0.0275 -0.0120 -0.0585
  801SSM    C2B 9796  20.679   3.335   6.195  0.0490  0.1226 -0.0568
  801SSM    C3B 9797  20.704   3.250   5.717  0.2028  0.0784  0.0080
  801SSM    C4B 9798  20.609   3.282   5.230  0.2277  0.1343 -0.0543
  802SSM    NC3 9799  13.498   5.521   8.080 -0.1184  0.1315 -0.5499
  802SSM    PO4 9800  13.454   5.183   7.947 -0.0292 -0.0417  0.0363
  802SSM    OH1 9801  13.442   5.233   7.611  0.2513 -0.0921  0.0447
  802SSM    AM2 9802  13.333   4.966   7.508  0.0370 -0.1541  0.1982
  802SSM    T1A 9803  13.216   5.350   7.379 -0.4463 -0.2573 -0.2324
  802SSM    C2A 9804  13.278   5.372   7.001  0.0726  0.1423 -0.0747
  802SSM    C3A 9805  13.240   5.273   6.548 -0.0582 -0.1743 -0.0105
  802SSM    C4A 9806  13.324   5.351   6.092 -0.1698 -0.3040  0.1941
  802SSM    C1B 9807  13.294   4.734   7.169 -0.0437 -0.2807  0.1186
  802SSM    C2B 9808  13.388   4.756   6.672  0.1135 -0.0853 -0.0279
  802SSM    C3B 9809  13.425   4.660   6.221 -0.0463 -0.0074  0.0679
  802SSM    C4B 9810  13.519   4.489   5.790 -0.0140  0.0005  0.3701
  803SSM    NC3 9811  26.346  17.394   7.239 -0.1993 -0.0227  0.4234
  803SSM    PO4 9812  26.364  17.113   7.528 -0.0607 -0.1417  0.0209
  803SSM    OH1 9813  26.465  16.842   7.345  0.0755  0.0995 -0.0858
  803SSM    AM2 9814  26.538  16.985   7.082 -0.3334  0.0461 -0.2196
  803SSM    T1A 9815  26.378  16.608   7.112 -0.2197  0.2334 -0.2801
  803SSM    C2A 9816  26.224  16.428   6.808 -0.1014 -0.2002  0.0988
  803SSM    C3A 9817  25.858  16.397   6.478  0.1573  0.0432 -0.0314
  803SSM    C4A 9818  25.389  16.315   6.242 -0.1719  0.2858 -0.1755
  803SSM    C1B 9819  26.602  17.089   6.739  0.1491 -0.3471 -0.0201
  803SSM    C2B 9820  26.592  17.099   6.277 -0.0345  0.0146 -0.0802
  803SSM    C3B 9821  26.495  17.115   5.786 -0.2100  0.2378 -0.0844
  803SSM    C4B 9822  26.231  16.697   5.575 -0.0417  0.2181  0.1246
  804SSM    NC3 9823  15.160  24.699   8.099 -0.1708 -0.0724 -0.0235
  804SSM    PO4 9824  15.054  24.422   7.812  0.2008 -0.0207 -0.1940
  804SSM    OH1 9825  15.149  24.525   7.452 -0.1259 -0.2408  0.0726
  804SSM    AM2 9826  15.435  24.467   7.498  0.2214  0.0700  0.1048
  804SSM    T1A 9827  15.236  24.363   7.154 -0.2712  0.0304 -0.2665
  804SSM    C2A 9828  15.280  24.399   6.743  0.0429 -0.0027 -0.0138
  804SSM    C3A 9829  15.167  24.222   6.291 -0.1951 -0.4079  0.1632
  804SSM    C4A 9830  15.042  24.157   5.865  0.1722 -0.3687  0.0885
  804SSM    C1B 9831  15.633  24.559   7.194 -0.1912 -0.0347  0.2488
  804SSM    C2B 9832  15.772  24.431   6.681  0.2368  0.1524  0.1064
  804SSM    C3B 9833  16.007  24.322   6.282  0.1748 -0.0258  0.0033
  804SSM    C4B 9834  16.049  24.219   5.817 -0.0025 -0.0790  0.0686
  805SSM    NC3 9835   8.678  15.174   7.853 -0.0237 -0.0702 -0.4475
  805SSM    PO4 9836   8.353  14.995   7.627 -0.1904 -0.2548 -0.1161
  805SSM    OH1 9837   8.375  14.872   7.285 -0.2014 -0.0789  0.1867
  805SSM    AM2 9838   8.094  14.950   7.215 -0.0708  0.1043 -0.1222
  805SSM    T1A 9839   8.462  14.839   6.962 -0.5308  0.1391 -0.3279
  805SSM    C2A 9840   8.463  14.840   6.611  0.1449  0.0014 -0.0614
  805SSM    C3A 9841   8.467  14.771   6.150 -0.0421 -0.1587 -0.1858
  805SSM    C4A 9842   8.523  14.716   5.686  0.3029 -0.1395 -0.1399
  805SSM    C1B 9843   7.783  15.083   6.960 -0.1211 -0.2415 -0.0580
  805SSM    C2B 9844   7.838  15.164   6.435 -0.0845  0.0978 -0.0328
  805SSM    C3B 9845   8.002  15.110   5.955  0.0853  0.4025  0.0781
  805SSM    C4B 9846   8.075  14.828   5.510  0.0203 -0.0751  0.1444
  806SSM    NC3 9847   8.626  25.220   8.004 -0.1938 -0.0013 -0.4004
  806SSM    PO4 9848   8.876  24.962   7.947  0.2175  0.0900  0.4146
  806SSM    OH1 9849   9.032  24.996   7.625 -0.1248 -0.3246 -0.2634
  806SSM    AM2 9850   8.909  24.790   7.488  0.2226  0.2840  0.1263
  806SSM    T1A 9851   8.926  25.168   7.358  0.0085  0.4489  0.0266
  806SSM    C2A 9852   8.774  25.110   7.002 -0.1423  0.0797 -0.1975
  806SSM    C3A 9853   8.654  24.838   6.591 -0.0505 -0.0698 -0.1287
  806SSM    C4A 9854   8.400  24.766   6.204  0.2556 -0.2224 -0.2703
  806SSM    C1B 9855   8.847  24.613   7.147 -0.0130  0.0471  0.0891
  806SSM    C2B 9856   9.080  24.531   6.705  0.0661 -0.1080 -0.0536
  806SSM    C3B 9857   9.182  24.706   6.278  0.0980  0.1311  0.0283
  806SSM    C4B 9858   9.109  25.215   6.134  0.0430  0.0661  0.0252
  807SSM    NC3 9859  14.251  26.033   8.745 -0.1164 -0.1077  0.0721
  807SSM    PO4 9860  14.037  26.107   8.430 -0.1415  0.1998 -0.1620
  807SSM    OH1 9861  13.837  26.005   8.143 -0.0461 -0.2195 -0.1567
  807SSM    AM2 9862  13.962  26.222   7.946 -0.1759 -0.0103 -0.2945
  807SSM    T1A 9863  13.750  25.843   7.853  0.2632 -0.2563  0.0250
  807SSM    C2A 9864  13.685  25.809   7.485  0.1739  0.0584  0.0466
  807SSM    C3A 9865  13.526  25.861   7.028 -0.0907 -0.0350  0.0068
  807SSM    C4A 9866  13.357  26.105   6.622 -0.4091  0.2193  0.0022
  807SSM    C1B 9867  14.081  26.279   7.584 -0.0830 -0.0811  0.2200
  807SSM    C2B 9868  14.199  26.202   7.069  0.0970 -0.1387  0.1235
  807SSM    C3B 9869  14.095  26.085   6.586  0.0395  0.0548 -0.1290
  807SSM    C4B 9870  14.086  25.938   6.126  0.2274 -0.1229 -0.1325
  808SSM    NC3 9871  21.085   5.695   7.773  0.0482  0.1815  0.0860
  808SSM    PO4 9872  20.867   5.390   7.663 -0.0881  0.2078 -0.1458
  808SSM    OH1 9873  21.012   5.142   7.419  0.1330  0.0484 -0.2036
  808SSM    AM2 9874  20.945   5.280   7.161  0.3097  0.2568 -0.4801
  808SSM    T1A 9875  21.270   4.971   7.246  0.3417  0.1591 -0.1325
  808SSM    C2A 9876  21.465   5.188   6.968  0.0801 -0.1590 -0.1367
  808SSM    C3A 9877  21.687   5.297   6.503  0.0071 -0.4212 -0.0866
  808SSM    C4A 9878  22.004   5.443   6.169 -0.2986  0.3071  0.1080
  808SSM    C1B 9879  21.049   5.468   6.827 -0.0666  0.2984 -0.3706
  808SSM    C2B 9880  20.943   5.463   6.333  0.1428 -0.2048  0.2705
  808SSM    C3B 9881  20.812   5.260   5.931 -0.2394  0.0053 -0.4638
  808SSM    C4B 9882  20.783   5.263   5.469 -0.1258 -0.0893 -0.0929
  809SSM    NC3 9883  10.309   9.547   8.109  0.1849 -0.0227  0.0464
  809SSM    PO4 9884  10.519   9.840   7.983 -0.1530  0.0112  0.3223
  809SSM    OH1 9885  10.601  10.047   7.705  0.3937  0.1913 -0.3324
  809SSM    AM2 9886  10.647   9.866   7.481 -0.2233  0.3060  0.0853
  809SSM    T1A 9887  10.579  10.281   7.479  0.2967  0.3011 -0.1285
  809SSM    C2A 9888  10.619  10.306   7.108 -0.0036 -0.0092  0.0783
  809SSM    C3A 9889  10.814  10.444   6.737 -0.4283 -0.0354  0.1205
  809SSM    C4A 9890  11.121  10.428   6.381 -0.2786 -0.0528  0.0791
  809SSM    C1B 9891  10.789   9.847   7.149 -0.3575  0.0490  0.4376
  809SSM    C2B 9892  10.827   9.885   6.636  0.1234 -0.0659 -0.0371
  809SSM    C3B 9893  10.833  10.048   6.172  0.0160  0.0906  0.0462
  809SSM    C4B 9894  10.961  10.068   5.660 -0.1502  0.0659 -0.2179
  810SSM    NC3 9895   9.978  18.465   7.862 -0.3196 -0.0198 -0.1984
  810SSM    PO4 9896   9.734  18.149   7.801  0.0696 -0.2444  0.4947
  810SSM    OH1 9897   9.721  18.092   7.440 -0.1432  0.2042  0.0219
  810SSM    AM2 9898   9.923  18.307   7.373  0.3446  0.4034  0.2310
  810SSM    T1A 9899   9.676  18.112   7.096  0.1894  0.1222  0.2764
  810SSM    C2A 9900   9.482  18.108   6.717 -0.1556  0.1894  0.3200
  810SSM    C3A 9901   9.323  18.306   6.338  0.3364 -0.0835  0.0265
  810SSM    C4A 9902   9.115  18.341   5.878 -0.5311  0.2795 -0.2297
  810SSM    C1B 9903   9.959  18.436   6.960  0.1791  0.0828  0.1819
  810SSM    C2B 9904   9.894  18.646   6.489  0.3745  0.0405  0.1035
  810SSM    C3B 9905   9.618  18.647   6.144 -0.0223 -0.0868  0.0107
  810SSM    C4B 9906   9.322  18.803   5.736  0.3861  0.1479 -0.1410
  811SSM    NC3 9907   8.741  18.220   7.834 -0.2892  0.1949 -0.0081
  811SSM    PO4 9908   8.575  18.545   8.017  0.3692 -0.3275  0.0716
  811SSM    OH1 9909   8.602  18.841   7.787 -0.1135 -0.0109  0.1950
  811SSM    AM2 9910   8.806  18.646   7.602  0.0144 -0.5053 -0.0060
  811SSM    T1A 9911   8.584  18.987   7.478  0.1843 -0.1109 -0.3580
  811SSM    C2A 9912   8.649  18.945   7.118 -0.0732 -0.1388 -0.1622
  811SSM    C3A 9913   8.715  18.835   6.607 -0.1088  0.3310 -0.1095
  811SSM    C4A 9914   8.641  18.870   6.125 -0.0202 -0.0563  0.0756
  811SSM    C1B 9915   8.806  18.388   7.361  0.0035 -0.1776 -0.0866
  811SSM    C2B 9916   8.617  18.119   6.958 -0.1051  0.1310 -0.0147
  811SSM    C3B 9917   8.351  18.030   6.544  0.2583 -0.0662  0.1672
  811SSM    C4B 9918   8.198  17.989   6.083  0.1543  0.2539 -0.0444
  812SSM    NC3 9919   5.245  11.474   7.266 -0.0938  0.0742  0.0102
  812SSM    PO4 9920   5.399  11.124   7.308 -0.0493  0.2708 -0.2151
  812SSM    OH1 9921   5.674  11.176   7.104 -0.0036  0.0481 -0.0339
  812SSM    AM2 9922   5.518  11.309   6.870 -0.3917  0.0706 -0.2005
  812SSM    T1A 9923   5.940  11.222   6.893 -0.3072 -0.6383 -0.2118
  812SSM    C2A 9924   6.047  11.315   6.485  0.3575 -0.0400 -0.2431
  812SSM    C3A 9925   6.189  11.404   6.035 -0.0567 -0.3829  0.0341
  812SSM    C4A 9926   6.521  11.309   5.702 -0.1670 -0.0172  0.0838
  812SSM    C1B 9927   5.571  11.541   6.487 -0.1059 -0.1737 -0.1418
  812SSM    C2B 9928   5.544  11.473   5.977  0.2110 -0.1683  0.2745
  812SSM    C3B 9929   5.423  11.466   5.531 -0.3869  0.0028  0.2139
  812SSM    C4B 9930   5.244  11.589   5.060  0.1614 -0.1004 -0.2191
  813SSM    NC3 9931   4.247   7.802   7.649 -0.2747 -0.2772  0.0964
  813SSM    PO4 9932   4.206   7.783   7.237  0.1438  0.0872  0.0255
  813SSM    OH1 9933   4.199   7.921   6.887 -0.1447  0.0191  0.0787
  813SSM    AM2 9934   4.459   7.764   6.818  0.0512  0.1759 -0.0078
  813SSM    T1A 9935   4.100   7.818   6.587  0.2115  0.1344  0.3470
  813SSM    C2A 9936   4.169   7.781   6.209  0.0115 -0.0759 -0.0762
  813SSM    C3A 9937   4.163   7.859   5.773 -0.2587  0.0833 -0.2058
  813SSM    C4A 9938   4.171   8.084   5.280  0.0766  0.0368  0.1181
  813SSM    C1B 9939   4.612   7.543   6.507 -0.0087 -0.1125 -0.3195
  813SSM    C2B 9940   4.558   7.528   5.986  0.0637 -0.1933  0.0600
  813SSM    C3B 9941   4.402   7.489   5.536  0.0787  0.1861  0.0190
  813SSM    C4B 9942   4.584   7.746   5.199 -0.2596 -0.2215  0.1336
  814SSM    NC3 9943  21.262  25.207   7.354  0.0543 -0.0314  0.2729
  814SSM    PO4 9944  20.913  25.352   7.545 -0.0966 -0.1587 -0.1991
  814SSM    OH1 9945  20.735  25.264   7.266  0.3116  0.1275  0.1479
  814SSM    AM2 9946  20.715  25.522   7.111 -0.1735 -0.0322 -0.1102
  814SSM    T1A 9947  20.701  25.135   6.956  0.1269  0.3478  0.3357
  814SSM    C2A 9948  20.743  25.023   6.572  0.1358  0.2219 -0.2471
  814SSM    C3A 9949  20.700  24.904   6.203  0.0363 -0.1153  0.1056
  814SSM    C4A 9950  20.832  24.868   5.732  0.1116  0.0744 -0.1961
  814SSM    C1B 9951  20.752  25.514   6.722  0.1682 -0.2055  0.0145
  814SSM    C2B 9952  20.660  25.455   6.168  0.0056  0.0010 -0.3115
  814SSM    C3B 9953  20.484  25.274   5.751 -0.1786  0.0988 -0.0428
  814SSM    C4B 9954  20.360  24.844   5.591  0.1266  0.1882  0.4649
  815SSM    NC3 9955   9.881   8.316   7.553  0.1712  0.2837 -0.0874
  815SSM    PO4 9956   9.483   8.217   7.498 -0.2187 -0.1915 -0.1613
  815SSM    OH1 9957   9.491   8.139   7.158 -0.2457  0.0789  0.0263
  815SSM    AM2 9958   9.556   8.414   7.075  0.0250  0.0054 -0.1162
  815SSM    T1A 9959   9.567   7.965   6.886 -0.0714  0.0424 -0.1870
  815SSM    C2A 9960   9.433   8.033   6.510 -0.3559  0.2139  0.1386
  815SSM    C3A 9961   9.617   8.176   6.111  0.1095 -0.0983  0.4002
  815SSM    C4A 9962   9.763   8.302   5.600  0.0888  0.1188 -0.0872
  815SSM    C1B 9963   9.548   8.774   6.754 -0.0637  0.0693 -0.3602
  815SSM    C2B 9964   9.578   9.013   6.362 -0.3177 -0.1506 -0.2909
  815SSM    C3B 9965   9.688   9.184   5.905 -0.0344 -0.1084  0.3490
  815SSM    C4B 9966   9.900   9.195   5.467 -0.0567 -0.4001 -0.0464
  816SSM    NC3 9967  27.015  14.362   7.830 -0.1162 -0.1659 -0.0665
  816SSM    PO4 9968  27.403  14.279   7.849 -0.1469 -0.2605 -0.2323
  816SSM    OH1 9969  27.490  14.425   7.532 -0.5125 -0.3586 -0.1351
  816SSM    AM2 9970  27.565  14.157   7.420 -0.2237  0.3702 -0.3972
  816SSM    T1A 9971  27.416  14.512   7.186 -0.2153 -0.0490 -0.0512
  816SSM    C2A 9972  27.385  14.396   6.781  0.2263 -0.1673 -0.0136
  816SSM    C3A 9973  27.413  14.216   6.283 -0.0049 -0.2470 -0.0843
  816SSM    C4A 9974  27.691  13.882   6.104  0.1101  0.3215  0.0989
  816SSM    C1B 9975  27.651  13.912   7.102 -0.1109  0.0033  0.2578
  816SSM    C2B 9976  27.297  13.717   6.732 -0.1275 -0.0819 -0.1926
  816SSM    C3B 9977  27.192  13.741   6.284  0.0513 -0.1589 -0.2619
  816SSM    C4B 9978  27.059  13.965   5.876 -0.2665 -0.0206  0.2184
  817SSM    NC3 9979  27.319   7.360   7.873  0.0693 -0.1409  0.1270
  817SSM    PO4 9980  27.342   6.941   7.735 -0.0762  0.0291 -0.0510
  817SSM    OH1 9981  27.270   7.096   7.422 -0.0909 -0.0739 -0.0425
  817SSM    AM2 9982  27.374   6.874   7.248  0.0825  0.1768  0.3138
  817SSM    T1A 9983  27.236   7.291   7.146 -0.2603 -0.0947 -0.0607
  817SSM    C2A 9984  27.179   7.324   6.734  0.4087  0.0327 -0.3256
  817SSM    C3A 9985  26.797   7.430   6.407 -0.1365 -0.0457  0.0102
  817SSM    C4A 9986  26.847   7.352   5.963  0.1707  0.0848  0.2707
  817SSM    C1B 9987  27.462   6.928   6.868  0.0859  0.1239  0.2506
  817SSM    C2B 9988  27.627   7.280   6.464 -0.1871 -0.1293 -0.3077
  817SSM    C3B 9989  27.776   7.454   6.047  0.4762 -0.0521  0.3303
  817SSM    C4B 9990  28.008   7.689   5.678  0.0973 -0.0290  0.1798
  818SSM    NC3 9991  26.168   8.739   7.814 -0.0337  0.1477 -0.1589
  818SSM    PO4 9992  26.271   9.072   7.983 -0.2642 -0.1813 -0.3781
  818SSM    OH1 9993  26.341   9.273   7.689  0.3306 -0.0790  0.0518
  818SSM    AM2 9994  26.165   9.075   7.544  0.1835  0.3598 -0.1666
  818SSM    T1A 9995  26.384   9.410   7.374  0.0873  0.1550  0.1450
  818SSM    C2A 9996  26.388   9.512   6.968 -0.1552 -0.0444  0.1957
  818SSM    C3A 9997  26.379   9.498   6.481 -0.1553 -0.2506 -0.1261
  818SSM    C4A 9998  26.524   9.382   6.048 -0.0169 -0.2384  0.0936
  818SSM    C1B 9999  25.971   8.954   7.207  0.0136  0.4132  0.2466
  818SSM    C2B10000  25.780   8.793   6.781  0.2426  0.1531  0.1343
  818SSM    C3B10001  25.505   8.731   6.408 -0.2956 -0.2381 -0.0490
  818SSM    C4B10002  25.544   8.778   5.918  0.0832  0.1627 -0.2905
  819SSM    NC310003   1.258  11.912   7.373 -0.0144  0.0790  0.0304
  819SSM    PO410004   1.479  11.559   7.442  0.1222  0.1137  0.0301
  819SSM    OH110005   1.567  11.296   7.231  0.1630  0.3345  0.4900
  819SSM    AM210006   1.281  11.183   7.219 -0.4041 -0.0201  0.2109
  819SSM    T1A10007   1.594  11.174   6.910  0.1929 -0.1332 -0.2473
  819SSM    C2A10008   1.549  10.971   6.554  0.0058 -0.1179  0.0508
  819SSM    C3A10009   1.476  10.850   6.128 -0.2858  0.0170 -0.0103
  819SSM    C4A10010   1.842  10.967   5.773 -0.1773 -0.0418 -0.0835
  819SSM    C1B10011   0.984  11.004   7.055  0.2809  0.2045  0.4686
  819SSM    C2B10012   1.001  10.906   6.512 -0.1796  0.1886 -0.0594
  819SSM    C3B10013   0.935  10.911   6.050 -0.0211 -0.1353  0.0378
  819SSM    C4B10014   0.521  10.729   5.857 -0.3124  0.1370  0.1952
  820SSM    NC310015  10.201  26.337   8.031 -0.1070  0.1079 -0.2635
  820SSM    PO410016  10.495  26.130   7.890  0.1821  0.2966  0.0283
  820SSM    OH110017  10.687  26.232   7.637 -0.4799  0.2040 -0.0532
  820SSM    AM210018  10.527  26.128   7.398 -0.0115 -0.0657 -0.2816
  820SSM    T1A10019  10.948  26.327   7.390 -0.0866  0.0176 -0.1851
  820SSM    C2A10020  11.170  26.365   7.090 -0.3461 -0.0823 -0.0793
  820SSM    C3A10021  11.310  26.331   6.671 -0.1872  0.5612 -0.1256
  820SSM    C4A10022  11.412  26.289   6.188  0.0343 -0.2454  0.1577
  820SSM    C1B10023  10.579  26.017   6.994  0.0752 -0.0234 -0.0033
  820SSM    C2B10024  10.395  25.895   6.508 -0.2792 -0.0653 -0.2182
  820SSM    C3B10025  10.248  25.978   6.005 -0.0577 -0.0344  0.0880
  820SSM    C4B10026   9.900  26.032   5.685 -0.1777 -0.0922 -0.1666
  821SSM    NC310027  12.027  25.806   8.057  0.1017 -0.2513 -0.1374
  821SSM    PO410028  11.954  26.064   7.781  0.0184  0.1055 -0.0086
  821SSM    OH110029  11.676  26.046   7.523  0.0982  0.1633 -0.0985
  821SSM    AM210030  11.856  26.167   7.303 -0.1001  0.0956 -0.0757
  821SSM    T1A10031  11.395  26.057   7.312  0.0346  0.2373 -0.0935
  821SSM    C2A10032  11.482  25.934   6.939  0.1855 -0.3430  0.1795
  821SSM    C3A10033  11.361  25.758   6.485  0.0405  0.1004  0.0382
  821SSM    C4A10034  11.244  25.860   5.993 -0.1529 -0.2316 -0.1663
  821SSM    C1B10035  11.963  26.208   6.884 -0.2085 -0.1586 -0.1488
  821SSM    C2B10036  11.829  26.135   6.383 -0.1432  0.0650 -0.0605
  821SSM    C3B10037  11.854  26.085   5.823  0.0894  0.1671 -0.1395
  821SSM    C4B10038  11.792  26.160   5.324  0.2777 -0.0783 -0.1079
  822SSM    NC310039   3.113   8.270   7.729  0.1069  0.1760 -0.1667
  822SSM    PO410040   2.719   8.331   7.777 -0.0804  0.3142  0.1109
  822SSM    OH110041   2.427   8.411   7.590 -0.2786  0.0502 -0.1400
  822SSM    AM210042   2.431   8.178   7.404  0.2456 -0.2375  0.3659
  822SSM    T1A10043   2.224   8.581   7.360  0.0429  0.6836 -0.0941
  822SSM    C2A10044   2.177   8.946   7.223 -0.1228 -0.0367 -0.1139
  822SSM    C3A10045   1.844   9.011   6.893  0.0756  0.1263 -0.0579
  822SSM    C4A10046   1.672   9.104   6.419 -0.0866  0.1360 -0.2754
  822SSM    C1B10047   2.456   8.065   7.068 -0.4974  0.0171  0.1252
  822SSM    C2B10048   2.268   8.160   6.571  0.1846  0.3650 -0.2328
  822SSM    C3B10049   2.280   8.527   6.225  0.0227  0.4083  0.1932
  822SSM    C4B10050   2.429   8.815   5.815 -0.3095  0.2116 -0.0945
  823SSM    NC310051   6.880   6.015   7.340  0.0086  0.1679 -0.1376
  823SSM    PO410052   6.512   5.824   7.231  0.1490 -0.0309  0.0346
  823SSM    OH110053   6.380   5.769   6.920  0.1436  0.0458  0.0850
  823SSM    AM210054   6.525   5.522   6.902 -0.0655  0.1637 -0.1248
  823SSM    T1A10055   6.323   5.727   6.590  0.0805 -0.1212  0.1975
  823SSM    C2A10056   6.317   5.705   6.178 -0.2293  0.1651  0.1799
  823SSM    C3A10057   6.635   5.559   5.774 -0.0357  0.0720  0.1612
  823SSM    C4A10058   6.911   5.580   5.357  0.1431 -0.2362 -0.2414
  823SSM    C1B10059   6.568   5.273   6.562 -0.2183  0.0474  0.1515
  823SSM    C2B10060   6.566   5.156   6.065  0.0497  0.0228 -0.2174
  823SSM    C3B10061   6.468   5.045   5.593 -0.3094  0.2054  0.1769
  823SSM    C4B10062   6.397   5.224   5.189 -0.1866 -0.3123  0.0837
  824SSM    NC310063   1.054   3.829   7.624 -0.0548 -0.0824 -0.1358
  824SSM    PO410064   0.881   4.189   7.589 -0.3481 -0.4238 -0.2902
  824SSM    OH110065   1.040   4.187   7.263 -0.2731 -0.0650  0.0773
  824SSM    AM210066   0.926   4.444   7.181  0.0586  0.2166  0.4788
  824SSM    T1A10067   0.992   4.021   6.964  0.1404 -0.0796 -0.2932
  824SSM    C2A10068   0.808   3.791   6.738  0.1539 -0.0299 -0.0020
  824SSM    C3A10069   0.896   3.804   6.295  0.0833  0.1161  0.4888
  824SSM    C4A10070   0.859   3.477   5.958  0.0765 -0.1141 -0.1836
  824SSM    C1B10071   0.785   4.651   6.976 -0.3241 -0.0213  0.2541
  824SSM    C2B10072   0.648   4.644   6.453 -0.0447 -0.0927 -0.1040
  824SSM    C3B10073   0.487   4.397   6.069 -0.0754 -0.2430  0.0486
  824SSM    C4B10074   0.426   4.278   5.575  0.1144  0.0826 -0.0174
  825SSM    NC310075   2.530  23.708   7.897 -0.3349  0.1520 -0.2217
  825SSM    PO410076   2.573  24.027   8.053 -0.0948 -0.0307  0.3978
  825SSM    OH110077   2.760  24.153   7.756  0.3428 -0.0848 -0.2014
  825SSM    AM210078   2.533  24.049   7.575 -0.1920 -0.0481  0.5003
  825SSM    T1A10079   2.903  24.319   7.499  0.1014 -0.3131  0.4853
  825SSM    C2A10080   3.044  24.502   7.174 -0.1727  0.2399 -0.3955
  825SSM    C3A10081   3.129  24.426   6.664  0.0365  0.1247 -0.3286
  825SSM    C4A10082   3.221  24.303   6.232  0.0838  0.0888  0.2107
  825SSM    C1B10083   2.402  24.036   7.166 -0.3304  0.1628 -0.3053
  825SSM    C2B10084   2.335  23.842   6.710 -0.1242 -0.1380 -0.0342
  825SSM    C3B10085   2.309  23.583   6.343 -0.1002  0.1625 -0.1722
  825SSM    C4B10086   2.113  23.575   5.866  0.0839 -0.0190 -0.2152
  826SSM    NC310087  21.886   1.867   8.114 -0.0072  0.1354 -0.4456
  826SSM    PO410088  21.811   1.476   8.016 -0.1603 -0.2557  0.1018
  826SSM    OH110089  21.609   1.570   7.738  0.4820 -0.1516  0.2001
  826SSM    AM210090  21.847   1.647   7.585 -0.3554 -0.2504  0.3912
  826SSM    T1A10091  21.492   1.716   7.430  0.1410 -0.1512  0.0924
  826SSM    C2A10092  21.298   1.723   7.106 -0.1268  0.1059  0.0723
  826SSM    C3A10093  21.160   1.759   6.553  0.2303  0.1042  0.2283
  826SSM    C4A10094  20.990   1.705   6.094  0.1250  0.0256 -0.2803
  826SSM    C1B10095  22.112   1.592   7.323 -0.0095 -0.2345 -0.3009
  826SSM    C2B10096  22.227   1.751   6.868  0.0411 -0.0236 -0.1944
  826SSM    C3B10097  22.295   2.075   6.543 -0.1582  0.1727  0.0571
  826SSM    C4B10098  22.586   2.487   6.549  0.0343  0.2013  0.2911
  827SSM    NC310099  12.354   5.157   7.622  0.0158  0.1255 -0.1495
  827SSM    PO410100  12.262   4.826   7.783  0.0353 -0.1476  0.1002
  827SSM    OH110101  12.090   4.630   7.522  0.1586  0.1297 -0.0933
  827SSM    AM210102  12.224   4.702   7.271 -0.1828  0.0110 -0.0403
  827SSM    T1A10103  11.982   4.410   7.279 -0.3687 -0.2968  0.1082
  827SSM    C2A10104  12.013   4.510   6.917  0.0654 -0.1705  0.1945
  827SSM    C3A10105  12.035   4.548   6.422 -0.0409  0.1425 -0.0420
  827SSM    C4A10106  12.025   4.656   5.932  0.2061 -0.1608 -0.1861
  827SSM    C1B10107  12.463   4.783   7.030  0.2121  0.1741 -0.1019
  827SSM    C2B10108  12.545   4.824   6.561 -0.4304  0.2143  0.2974
  827SSM    C3B10109  12.565   4.678   6.129 -0.1180 -0.0580 -0.2337
  827SSM    C4B10110  12.624   4.637   5.646  0.1797  0.0484 -0.0324
  828SSM    NC310111   5.158  17.936   7.802  0.3110  0.2792 -0.2007
  828SSM    PO410112   5.136  18.225   7.548 -0.0608  0.0256 -0.1927
  828SSM    OH110113   5.000  18.464   7.286  0.5684  0.1715 -0.2460
  828SSM    AM210114   5.145  18.327   7.074  0.3128 -0.2896  0.0718
  828SSM    T1A10115   4.758  18.544   7.038  0.0163  0.0546 -0.1363
  828SSM    C2A10116   4.495  18.612   6.688 -0.1010 -0.1260  0.1303
  828SSM    C3A10117   4.378  18.476   6.188 -0.1347 -0.0582  0.0895
  828SSM    C4A10118   4.020  18.485   5.910  0.2229  0.1296  0.1866
  828SSM    C1B10119   5.121  18.126   6.703  0.0732  0.1259 -0.1257
  828SSM    C2B10120   5.142  18.014   6.208 -0.1766  0.0104 -0.0596
  828SSM    C3B10121   5.136  17.834   5.732  0.3340  0.0105 -0.2877
  828SSM    C4B10122   5.243  17.661   5.250  0.1589  0.0821  0.1047
  829SSM    NC310123  12.426  15.884   7.739 -0.0084  0.0699  0.1120
  829SSM    PO410124  12.733  15.587   7.763  0.0553 -0.1527 -0.0075
  829SSM    OH110125  12.930  15.519   7.421 -0.1573  0.1172 -0.0021
  829SSM    AM210126  12.643  15.525   7.284 -0.4037  0.4846  0.2565
  829SSM    T1A10127  13.102  15.368   7.130 -0.0231  0.4473 -0.1001
  829SSM    C2A10128  13.018  15.285   6.699 -0.4046  0.1780  0.4732
  829SSM    C3A10129  13.092  15.274   6.236 -0.1826  0.2261 -0.2186
  829SSM    C4A10130  13.249  15.205   5.779 -0.0336  0.2939  0.1633
  829SSM    C1B10131  12.536  15.539   6.804  0.0476 -0.0609 -0.0248
  829SSM    C2B10132  12.572  15.431   6.281 -0.0006  0.0911 -0.1317
  829SSM    C3B10133  12.732  15.526   5.826 -0.6125 -0.0639  0.2394
  829SSM    C4B10134  12.558  15.777   5.473  0.0588 -0.1931 -0.2999
  830SSM    NC310135  15.557  16.454   7.640  0.0773 -0.1171  0.1714
  830SSM    PO410136  15.357  16.231   7.876 -0.1960 -0.4029 -0.1138
  830SSM    OH110137  14.995  16.266   7.740 -0.2670  0.0664  0.1882
  830SSM    AM210138  15.058  16.523   7.612 -0.0716 -0.0832  0.1704
  830SSM    T1A10139  14.956  16.151   7.411  0.0803  0.0239  0.1969
  830SSM    C2A10140  15.026  16.069   7.039 -0.1315 -0.1184  0.1367
  830SSM    C3A10141  15.076  16.138   6.568 -0.2485 -0.3068  0.3490
  830SSM    C4A10142  15.027  15.946   6.068 -0.1660 -0.1311  0.0965
  830SSM    C1B10143  15.057  16.622   7.212 -0.3794  0.0862  0.0429
  830SSM    C2B10144  15.040  16.687   6.713 -0.2003  0.1130 -0.0340
  830SSM    C3B10145  15.158  16.548   6.253  0.0974  0.3837  0.0519
  830SSM    C4B10146  15.247  16.537   5.755 -0.0872 -0.2150  0.2137
  831SSM    NC310147  24.183  13.049   8.451 -0.0281  0.4877  0.3374
  831SSM    PO410148  24.224  12.821   8.102 -0.1159 -0.1614 -0.0070
  831SSM    OH110149  24.232  12.999   7.785 -0.2192  0.2001 -0.0039
  831SSM    AM210150  24.052  12.810   7.640 -0.2150  0.3905  0.2586
  831SSM    T1A10151  24.223  13.202   7.516 -0.0536  0.1938 -0.0534
  831SSM    C2A10152  24.031  13.364   7.214  0.1384  0.1630 -0.2564
  831SSM    C3A10153  23.957  13.529   6.790 -0.0351 -0.0292  0.2881
  831SSM    C4A10154  23.729  13.521   6.325  0.0965 -0.1847  0.1005
  831SSM    C1B10155  23.854  12.732   7.307  0.0886 -0.1136 -0.2666
  831SSM    C2B10156  23.850  12.581   6.819 -0.0033 -0.3230 -0.0535
  831SSM    C3B10157  23.909  12.146   6.695 -0.1269 -0.2069  0.0543
  831SSM    C4B10158  23.922  11.658   6.733 -0.2193  0.2674 -0.1098
  832SSM    NC310159  10.074   7.515   7.414  0.2137  0.1352  0.3031
  832SSM    PO410160  10.099   7.913   7.360  0.0612 -0.0745 -0.1005
  832SSM    OH110161   9.960   8.135   7.122  0.0737 -0.0697 -0.0671
  832SSM    AM210162  10.222   8.193   6.978 -0.0312  0.0617  0.0927
  832SSM    T1A10163   9.856   8.298   6.822 -0.2802  0.0537 -0.2050
  832SSM    C2A10164   9.842   8.494   6.470  0.0684  0.1511 -0.0022
  832SSM    C3A10165   9.807   8.690   6.071  0.1297 -0.0473 -0.1257
  832SSM    C4A10166   9.698   8.787   5.627  0.1148  0.0880  0.2259
  832SSM    C1B10167  10.282   8.366   6.684 -0.3391 -0.2054  0.1937
  832SSM    C2B10168  10.389   8.549   6.199 -0.4838 -0.0678 -0.2547
  832SSM    C3B10169  10.203   8.706   5.738 -0.1662  0.3751 -0.0541
  832SSM    C4B10170  10.403   9.061   5.447 -0.1251 -0.0061 -0.2256
  833SSM    NC310171   8.659  17.271   8.205  0.0401  0.1186 -0.1544
  833SSM    PO410172   8.849  17.109   7.935 -0.1765 -0.0651  0.0826
  833SSM    OH110173   8.791  17.137   7.580  0.3485  0.2654 -0.0000
  833SSM    AM210174   8.509  17.084   7.557 -0.1463  0.3543 -0.2292
  833SSM    T1A10175   8.810  17.359   7.309 -0.3441 -0.0510  0.2666
  833SSM    C2A10176   8.883  17.404   6.927 -0.1571 -0.0511 -0.0915
  833SSM    C3A10177   8.930  17.442   6.494  0.0967  0.2375  0.2998
  833SSM    C4A10178   8.999  17.528   6.019  0.2513  0.0672 -0.1521
  833SSM    C1B10179   8.292  17.026   7.184 -0.1659 -0.1768 -0.0421
  833SSM    C2B10180   8.116  16.956   6.755 -0.0892  0.3855  0.1270
  833SSM    C3B10181   8.293  16.980   6.249 -0.3071 -0.0452 -0.0630
  833SSM    C4B10182   8.320  16.835   5.803  0.1145  0.1445  0.0493
  834SSM    NC310183   7.270  20.360   7.777 -0.1374  0.0749 -0.0380
  834SSM    PO410184   7.060  20.508   8.047  0.2811 -0.0100 -0.0778
  834SSM    OH110185   6.860  20.749   7.859 -0.0945  0.2028  0.0139
  834SSM    AM210186   7.013  20.700   7.598  0.0343 -0.1134 -0.0064
  834SSM    T1A10187   6.603  20.801   7.638 -0.1178 -0.1300  0.2081
  834SSM    C2A10188   6.447  20.901   7.241 -0.1115 -0.1536  0.0257
  834SSM    C3A10189   6.468  20.981   6.750 -0.1484 -0.1753 -0.1892
  834SSM    C4A10190   6.400  20.906   6.330 -0.0896 -0.0832 -0.0109
  834SSM    C1B10191   7.034  20.615   7.121 -0.2152 -0.1789 -0.2719
  834SSM    C2B10192   7.069  20.599   6.615  0.2561  0.2598  0.2347
  834SSM    C3B10193   7.059  20.503   6.185 -0.3182 -0.1339  0.1471
  834SSM    C4B10194   7.021  20.574   5.703 -0.2031  0.2168 -0.2158
  835SSM    NC310195  16.388   9.783   7.729 -0.0328 -0.0003 -0.1649
  835SSM    PO410196  16.452   9.625   7.411  0.0010  0.0548 -0.3331
  835SSM    OH110197  16.216   9.561   7.173 -0.2926 -0.0644  0.0032
  835SSM    AM210198  16.276   9.268   7.082 -0.1450  0.0091  0.0085
  835SSM    T1A10199  15.915   9.539   6.990 -0.1097  0.1065 -0.0158
  835SSM    C2A10200  15.685   9.368   6.791  0.2802 -0.1199  0.1214
  835SSM    C3A10201  15.356   9.171   6.495  0.0180 -0.4793 -0.1067
  835SSM    C4A10202  14.903   9.162   6.306 -0.0569 -0.0567 -0.1924
  835SSM    C1B10203  16.120   9.098   6.699 -0.0388 -0.0022  0.0715
  835SSM    C2B10204  15.915   9.353   6.271  0.0201  0.1696  0.1104
  835SSM    C3B10205  15.759   9.512   5.892  0.2906  0.2957  0.0539
  835SSM    C4B10206  15.913   9.709   5.441 -0.2674 -0.1096 -0.0460
  836SSM    NC310207   0.528  18.463   7.537  0.0596  0.1371 -0.0796
  836SSM    PO410208   0.266  18.775   7.567 -0.0569 -0.1259  0.1997
  836SSM    OH110209  -0.105  18.673   7.412 -0.2409 -0.1635 -0.0741
  836SSM    AM210210   0.044  18.416   7.406  0.3464 -0.3435 -0.4763
  836SSM    T1A10211  -0.256  18.591   7.125 -0.0772  0.0476 -0.1894
  836SSM    C2A10212  -0.525  18.690   6.767  0.0900  0.2695 -0.0379
  836SSM    C3A10213  -0.826  18.916   6.450 -0.1735 -0.3055  0.1820
  836SSM    C4A10214  -0.952  18.983   5.903 -0.1812  0.1033  0.3119
  836SSM    C1B10215   0.165  18.133   7.234  0.0500 -0.0176  0.2615
  836SSM    C2B10216   0.317  18.052   6.727  0.1456  0.1683  0.0864
  836SSM    C3B10217   0.258  18.127   6.276 -0.1942 -0.0811  0.1527
  836SSM    C4B10218   0.158  18.084   5.798 -0.0024 -0.0960 -0.0036
  837SSM    NC310219   9.244   2.361   7.488 -0.1532  0.4796  0.0153
  837SSM    PO410220   9.034   2.006   7.449 -0.1178 -0.0248 -0.0464
  837SSM    OH110221   8.993   2.049   7.085  0.2579 -0.0052  0.0811
  837SSM    AM210222   9.299   2.092   7.072 -0.4757 -0.2633  0.0468
  837SSM    T1A10223   8.997   2.118   6.741  0.2017  0.1781  0.0476
  837SSM    C2A10224   9.087   2.203   6.378 -0.2568 -0.0080  0.2497
  837SSM    C3A10225   9.336   2.221   5.974 -0.1352  0.0279  0.2442
  837SSM    C4A10226   9.422   2.036   5.555  0.0566  0.2768 -0.2743
  837SSM    C1B10227   9.579   2.197   6.761  0.0780  0.1160  0.0550
  837SSM    C2B10228   9.677   2.315   6.295  0.2326 -0.0738 -0.4014
  837SSM    C3B10229   9.904   2.306   5.921  0.2453 -0.0230  0.0336
  837SSM    C4B10230  10.018   2.200   5.474 -0.0578  0.1167 -0.1965
  838SSM    NC310231   1.340  20.663   7.818  0.1405 -0.1067  0.0869
  838SSM    PO410232   1.399  20.296   7.748  0.1169 -0.0589 -0.0991
  838SSM    OH110233   1.700  20.328   7.568 -0.3316 -0.0192  0.2187
  838SSM    AM210234   1.565  20.545   7.404  0.0121  0.0680  0.0406
  838SSM    T1A10235   2.008  20.381   7.397  0.0332  0.1346 -0.1675
  838SSM    C2A10236   2.009  20.333   7.010  0.1467  0.1863  0.1130
  838SSM    C3A10237   1.891  20.498   6.582  0.2567 -0.0224 -0.2483
  838SSM    C4A10238   1.713  20.394   6.177  0.0494  0.1111  0.0660
  838SSM    C1B10239   1.573  20.713   7.047  0.2174  0.2389  0.1625
  838SSM    C2B10240   1.436  20.823   6.541  0.0722 -0.0608 -0.1027
  838SSM    C3B10241   1.367  20.809   6.071  0.1553  0.3505 -0.0374
  838SSM    C4B10242   1.305  20.467   5.763  0.1997 -0.2096  0.0633
  839SSM    NC310243   9.976   5.806   7.785  0.0107 -0.1244 -0.1020
  839SSM    PO410244   9.954   5.644   7.431 -0.0483  0.0319 -0.0763
  839SSM    OH110245   9.777   5.773   7.153 -0.2655 -0.2111 -0.2781
  839SSM    AM210246   9.940   5.617   6.945 -0.0641 -0.0849 -0.0210
  839SSM    T1A10247   9.657   6.010   6.950  0.2025 -0.0719  0.0462
  839SSM    C2A10248   9.489   6.022   6.570  0.0314 -0.1173 -0.1990
  839SSM    C3A10249   9.463   6.175   6.092 -0.1019 -0.0837 -0.0712
  839SSM    C4A10250   9.412   6.213   5.605 -0.1070 -0.1740 -0.0675
  839SSM    C1B10251  10.070   5.548   6.587  0.1432 -0.1909 -0.0477
  839SSM    C2B10252  10.173   5.496   6.104  0.1030 -0.0328  0.0155
  839SSM    C3B10253  10.454   5.304   5.823 -0.0553  0.1733  0.3576
  839SSM    C4B10254  10.585   5.358   5.343  0.1122  0.2110 -0.0905
  840SSM    NC310255   9.070   8.898   7.746  0.1456 -0.0009 -0.0094
  840SSM    PO410256   9.036   8.505   7.693 -0.0149 -0.0289 -0.3409
  840SSM    OH110257   8.920   8.607   7.345 -0.0004  0.0544  0.0664
  840SSM    AM210258   9.142   8.451   7.214 -0.1208 -0.0716 -0.0758
  840SSM    T1A10259   8.885   8.710   7.000 -0.5535  0.3335  0.2341
  840SSM    C2A10260   8.985   8.841   6.710  0.3264  0.1455  0.0450
  840SSM    C3A10261   9.015   8.872   6.293 -0.0347 -0.0912  0.1395
  840SSM    C4A10262   8.841   9.030   5.776 -0.3976  0.2022 -0.1795
  840SSM    C1B10263   9.214   8.372   6.781  0.0669  0.3481 -0.1029
  840SSM    C2B10264   9.378   8.536   6.333 -0.2735 -0.1129  0.1710
  840SSM    C3B10265   9.260   8.752   5.927  0.3063  0.1275 -0.1246
  840SSM    C4B10266   9.203   8.782   5.463  0.2660 -0.1045 -0.1705
  841SSM    NC310267  24.438  21.007   7.609 -0.0674 -0.0772 -0.0948
  841SSM    PO410268  24.592  20.631   7.498 -0.0387  0.0544 -0.0367
  841SSM    OH110269  24.842  20.641   7.171  0.0597 -0.1285 -0.0072
  841SSM    AM210270  24.757  20.400   7.063  0.0357 -0.0412  0.0186
  841SSM    T1A10271  25.047  20.620   6.875 -0.1489  0.1765 -0.2067
  841SSM    C2A10272  25.201  20.780   6.557  0.0681 -0.1313 -0.3301
  841SSM    C3A10273  25.165  21.040   6.181  0.0715  0.0910 -0.1430
  841SSM    C4A10274  25.032  21.124   5.718 -0.2310 -0.0746  0.2951
  841SSM    C1B10275  24.849  20.102   6.807  0.0712  0.2122  0.1105
  841SSM    C2B10276  25.181  19.771   6.576  0.0606 -0.1661 -0.2199
  841SSM    C3B10277  25.311  19.369   6.324  0.2285  0.1783  0.0021
  841SSM    C4B10278  25.179  18.977   6.105 -0.1940  0.1547  0.1520
  842SSM    NC310279   0.111  14.741   7.712  0.0056 -0.3302  0.2329
  842SSM    PO410280   0.022  15.141   7.635 -0.1720  0.2828  0.1103
  842SSM    OH110281   0.076  15.272   7.298  0.2517 -0.2491 -0.0740
  842SSM    AM210282   0.154  15.004   7.192  0.0326  0.1604  0.1686
  842SSM    T1A10283  -0.045  15.413   6.993  0.2457 -0.1368  0.1199
  842SSM    C2A10284  -0.240  15.386   6.619  0.1965 -0.0517 -0.0187
  842SSM    C3A10285  -0.271  15.196   6.245 -0.1007 -0.0001 -0.0989
  842SSM    C4A10286  -0.055  15.129   5.828 -0.0002 -0.1315  0.0526
  842SSM    C1B10287   0.052  14.790   6.866  0.0661 -0.1444  0.4449
  842SSM    C2B10288  -0.037  14.728   6.363  0.0317  0.1061 -0.0994
  842SSM    C3B10289  -0.161  14.569   5.896 -0.1130  0.0075  0.0604
  842SSM    C4B10290  -0.191  14.195   5.598 -0.2490  0.0236  0.1638
  843SSM    NC310291  20.304  25.064   7.979 -0.1156 -0.0452  0.0572
  843SSM    PO410292  20.635  24.982   7.746 -0.1723  0.0382  0.0706
  843SSM    OH110293  20.353  25.069   7.510  0.0853 -0.1109 -0.2381
  843SSM    AM210294  20.420  24.836   7.315 -0.0037 -0.1772 -0.0250
  843SSM    T1A10295  20.258  25.338   7.311  0.1775 -0.3440  0.1697
  843SSM    C2A10296  20.295  25.593   6.987  0.1258 -0.0730 -0.1831
  843SSM    C3A10297  20.234  25.668   6.553  0.0525 -0.1863  0.0804
  843SSM    C4A10298  20.202  25.618   5.997 -0.0659 -0.1304 -0.0336
  843SSM    C1B10299  20.521  24.620   7.099 -0.0424 -0.0623 -0.0311
  843SSM    C2B10300  20.544  24.579   6.617  0.0440  0.0014  0.2172
  843SSM    C3B10301  20.512  24.454   6.193  0.0994 -0.0595 -0.2041
  843SSM    C4B10302  20.231  24.288   5.848  0.2151  0.4427 -0.2194
  844SSM    NC310303   7.294  13.041   7.347 -0.1790 -0.1000 -0.0210
  844SSM    PO410304   7.629  12.862   7.233  0.1243 -0.1799  0.1119
  844SSM    OH110305   7.489  13.003   6.901  0.0767 -0.7971 -0.0810
  844SSM    AM210306   7.722  13.211   6.885  0.3107  0.0487 -0.0393
  844SSM    T1A10307   7.446  13.084   6.564 -0.0473  0.4272 -0.0964
  844SSM    C2A10308   7.486  13.073   6.181  0.0363 -0.2316  0.2101
  844SSM    C3A10309   7.521  13.168   5.719  0.0820 -0.3298  0.4725
  844SSM    C4A10310   7.603  13.082   5.300  0.0737  0.2886 -0.0610
  844SSM    C1B10311   7.941  13.339   6.667  0.1457 -0.1207  0.2078
  844SSM    C2B10312   7.987  13.186   6.163  0.0931  0.1233 -0.2517
  844SSM    C3B10313   7.942  13.455   5.733  0.1322  0.1336 -0.0800
  844SSM    C4B10314   7.837  13.539   5.242  0.0244  0.1584 -0.1210
  845SSM    NC310315  19.862   3.609   7.245  0.1882 -0.2461 -0.0217
  845SSM    PO410316  20.072   3.945   7.304 -0.0696  0.0812 -0.1961
  845SSM    OH110317  19.980   4.018   6.935  0.0541 -0.4858 -0.2259
  845SSM    AM210318  20.161   4.281   6.990 -0.0788  0.2624 -0.0661
  845SSM    T1A10319  20.065   4.128   6.619 -0.0695  0.0422  0.1111
  845SSM    C2A10320  20.009   4.074   6.234  0.1952  0.4648 -0.2358
  845SSM    C3A10321  19.898   4.100   5.780  0.3437  0.1885 -0.3264
  845SSM    C4A10322  19.806   3.857   5.336  0.0390  0.1996 -0.5546
  845SSM    C1B10323  20.464   4.478   6.984  0.4142 -0.1422 -0.0326
  845SSM    C2B10324  20.731   4.921   7.036  0.1078 -0.0405  0.1661
  845SSM    C3B10325  20.958   5.036   6.613 -0.1537 -0.0842  0.4130
  845SSM    C4B10326  21.284   5.094   6.173  0.0582  0.0401 -0.1225
  846SSM    NC310327   5.603  22.834   8.796 -0.0281 -0.0575  0.1849
  846SSM    PO410328   5.449  22.916   8.441 -0.2090 -0.0959 -0.2639
  846SSM    OH110329   5.360  23.210   8.231 -0.1676 -0.0769  0.5349
  846SSM    AM210330   5.555  23.117   8.009  0.2374  0.3955 -0.2016
  846SSM    T1A10331   5.174  23.321   7.980 -0.1125 -0.2022  0.0712
  846SSM    C2A10332   4.965  23.426   7.681 -0.1295 -0.0089  0.1397
  846SSM    C3A10333   4.827  23.482   7.234  0.2061 -0.1319  0.0985
  846SSM    C4A10334   4.557  23.702   6.856  0.0723 -0.2213 -0.2700
  846SSM    C1B10335   5.782  23.143   7.730 -0.4195 -0.1235 -0.0292
  846SSM    C2B10336   5.762  23.246   7.223 -0.0090 -0.0022  0.1675
  846SSM    C3B10337   5.658  23.419   6.704 -0.0516  0.2291 -0.0878
  846SSM    C4B10338   5.800  23.695   6.361  0.3184 -0.0006 -0.1835
  847SSM    NC310339  11.700   1.766   7.615  0.4009  0.2959 -0.1350
  847SSM    PO410340  11.315   1.769   7.706  0.1659 -0.0188 -0.0242
  847SSM    OH110341  11.114   1.629   7.446  0.0879 -0.0345 -0.2010
  847SSM    AM210342  11.111   1.853   7.269 -0.0852 -0.0700  0.1108
  847SSM    T1A10343  10.958   1.408   7.248 -0.2802 -0.0158 -0.0730
  847SSM    C2A10344  11.139   1.458   6.899  0.0334  0.0456 -0.0580
  847SSM    C3A10345  11.397   1.344   6.543  0.0786 -0.3402 -0.3234
  847SSM    C4A10346  11.515   0.988   6.181  0.4442 -0.4305  0.1978
  847SSM    C1B10347  11.333   1.982   6.996 -0.1707 -0.3430  0.0883
  847SSM    C2B10348  11.487   1.997   6.510  0.3012  0.0361  0.2252
  847SSM    C3B10349  11.402   2.104   6.126 -0.1408  0.3313  0.0590
  847SSM    C4B10350  11.307   2.267   5.674  0.2272 -0.1510  0.0506
  848SSM    NC310351  14.422  18.548   7.784  0.1884  0.3277  0.1209
  848SSM    PO410352  14.754  18.408   7.823  0.0616  0.0785  0.1289
  848SSM    OH110353  14.643  18.163   7.577  0.0423  0.2209 -0.2549
  848SSM    AM210354  14.885  18.183   7.386 -0.0248  0.2110  0.0617
  848SSM    T1A10355  14.519  18.076   7.260 -0.0867  0.3169 -0.1928
  848SSM    C2A10356  14.420  18.220   6.847 -0.1549  0.0985  0.1452
  848SSM    C3A10357  14.365  18.317   6.405  0.0288 -0.1849 -0.0691
  848SSM    C4A10358  14.452  18.187   5.904 -0.0004  0.0431 -0.0031
  848SSM    C1B10359  15.032  18.230   7.062 -0.1309  0.1932 -0.0926
  848SSM    C2B10360  14.838  18.338   6.569 -0.0455  0.2312 -0.1231
  848SSM    C3B10361  14.805  18.497   6.101  0.2975  0.1400 -0.0601
  848SSM    C4B10362  14.614  18.537   5.643 -0.1578 -0.0723 -0.1555
  849SSM    NC310363   2.967  14.502   7.434  0.3530  0.3011 -0.2719
  849SSM    PO410364   2.789  14.162   7.315 -0.3387 -0.0549  0.1114
  849SSM    OH110365   2.448  14.119   7.183  0.2626  0.2072  0.1588
  849SSM    AM210366   2.556  14.048   6.910 -0.4283 -0.3014  0.0164
  849SSM    T1A10367   2.176  13.944   7.085  0.1897  0.1035  0.1349
  849SSM    C2A10368   2.163  13.874   6.707 -0.0655  0.0623  0.2916
  849SSM    C3A10369   2.099  13.855   6.231  0.0314  0.0836  0.2480
  849SSM    C4A10370   2.310  13.734   5.813  0.1762 -0.1485 -0.0111
  849SSM    C1B10371   2.763  13.713   6.762  0.1211  0.1293  0.1296
  849SSM    C2B10372   2.981  13.712   6.364  0.0067  0.3589 -0.1064
  849SSM    C3B10373   3.174  13.756   6.000 -0.0892 -0.0201 -0.1009
  849SSM    C4B10374   3.343  13.809   5.542  0.0763 -0.0895 -0.1711
  850SSM    NC310375  22.789   5.726   7.888 -0.0513  0.1086  0.2342
  850SSM    PO410376  22.942   5.349   7.793 -0.0269  0.2755  0.0263
  850SSM    OH110377  23.032   5.429   7.456 -0.3119 -0.3161 -0.0230
  850SSM    AM210378  23.295   5.558   7.548 -0.1790 -0.0162 -0.1953
  850SSM    T1A10379  23.173   5.332   7.150  0.3781  0.0387  0.2333
  850SSM    C2A10380  23.436   5.385   6.860  0.1644 -0.2823 -0.2195
  850SSM    C3A10381  23.568   5.472   6.420 -0.4398  0.1352  0.0488
  850SSM    C4A10382  23.895   5.729   6.143 -0.0062 -0.1536  0.4098
  850SSM    C1B10383  23.626   5.437   7.442  0.0102  0.1164  0.2479
  850SSM    C2B10384  23.939   5.287   7.018  0.0627  0.2878 -0.1044
  850SSM    C3B10385  24.041   5.313   6.545 -0.1567  0.1376 -0.0690
  850SSM    C4B10386  24.268   5.234   6.127 -0.3779  0.0031  0.0267
  851SSM    NC310387  23.383   7.150   7.986  0.1106 -0.1845  0.0579
  851SSM    PO410388  23.692   7.272   7.794 -0.3192  0.1967 -0.1662
  851SSM    OH110389  24.007   7.190   7.633 -0.0496 -0.3185  0.0344
  851SSM    AM210390  23.965   7.371   7.384 -0.3259 -0.2351 -0.3028
  851SSM    T1A10391  24.269   7.056   7.455 -0.1818 -0.3979  0.2511
  851SSM    C2A10392  24.595   6.978   7.187  0.2651  0.0386 -0.3370
  851SSM    C3A10393  24.767   6.974   6.761  0.2238  0.1190  0.2756
  851SSM    C4A10394  25.053   6.864   6.425 -0.1585  0.0115 -0.1191
  851SSM    C1B10395  24.025   7.529   7.028  0.1965 -0.3087  0.2009
  851SSM    C2B10396  24.089   7.532   6.503  0.0642  0.1074  0.0495
  851SSM    C3B10397  24.354   7.644   6.134 -0.2350 -0.0255  0.0051
  851SSM    C4B10398  24.637   7.536   5.715 -0.2057  0.0241 -0.0870
  852SSM    NC310399   0.897  14.328   7.738  0.2145 -0.2131  0.2421
  852SSM    PO410400   0.854  14.016   7.485  0.1452  0.0886  0.3522
  852SSM    OH110401   1.055  13.838   7.250  0.3547  0.2014  0.0444
  852SSM    AM210402   1.011  14.043   7.017  0.0997  0.4030  0.3572
  852SSM    T1A10403   1.171  13.661   6.999 -0.0578 -0.1915 -0.0403
  852SSM    C2A10404   1.259  13.584   6.623 -0.0179  0.2558 -0.1615
  852SSM    C3A10405   1.191  13.611   6.188  0.0628 -0.1825 -0.0415
  852SSM    C4A10406   1.029  13.828   5.768  0.1705 -0.1760  0.3821
  852SSM    C1B10407   1.112  14.029   6.668 -0.1106  0.2763 -0.0169
  852SSM    C2B10408   1.262  14.082   6.151  0.0877 -0.0382  0.0405
  852SSM    C3B10409   1.498  14.049   5.712 -0.1799  0.0340 -0.1412
  852SSM    C4B10410   1.548  14.021   5.264 -0.2766  0.0800 -0.1760
  853SSM    NC310411   7.461   3.848   7.197 -0.4558  0.0862 -0.3643
  853SSM    PO410412   7.353   3.446   7.158  0.0302 -0.2288  0.2865
  853SSM    OH110413   7.177   3.598   6.881 -0.1367 -0.2566  0.0359
  853SSM    AM210414   7.137   3.387   6.656  0.1101 -0.2771 -0.3543
  853SSM    T1A10415   6.890   3.776   6.809 -0.0856  0.0295  0.1550
  853SSM    C2A10416   6.838   3.793   6.457 -0.2101 -0.0507  0.0240
  853SSM    C3A10417   6.688   3.752   6.022  0.0577 -0.1630  0.0438
  853SSM    C4A10418   6.538   3.537   5.595  0.4015  0.1691  0.1320
  853SSM    C1B10419   7.162   3.307   6.291 -0.2081  0.1433  0.2393
  853SSM    C2B10420   6.937   3.328   5.782  0.0389 -0.5292  0.1771
  853SSM    C3B10421   6.848   3.237   5.303 -0.3365 -0.1029  0.0632
  853SSM    C4B10422   6.490   3.117   5.002 -0.0080  0.5098 -0.2304
  854SSM    NC310423   8.891   2.962   7.665  0.0645  0.0935 -0.0370
  854SSM    PO410424   9.299   2.867   7.565  0.1454 -0.1221  0.2743
  854SSM    OH110425   9.410   3.047   7.245 -0.3405  0.1720  0.1452
  854SSM    AM210426   9.141   3.030   7.138  0.1634  0.0545  0.1503
  854SSM    T1A10427   9.430   3.273   6.958  0.0383 -0.0644 -0.4060
  854SSM    C2A10428   9.422   3.354   6.546  0.3558 -0.1045  0.0606
  854SSM    C3A10429   9.533   3.276   6.103 -0.0598 -0.0246  0.2142
  854SSM    C4A10430   9.645   3.107   5.648 -0.1141 -0.0354 -0.2258
  854SSM    C1B10431   9.059   3.039   6.753  0.2007  0.2183  0.1459
  854SSM    C2B10432   9.128   3.067   6.258 -0.0915 -0.0576  0.2559
  854SSM    C3B10433   9.184   3.052   5.775  0.3357  0.1245 -0.0948
  854SSM    C4B10434   9.256   2.819   5.313 -0.0907 -0.1917 -0.1103
  855SSM    NC310435   7.506   6.208   7.829  0.2132  0.1575  0.0461
  855SSM    PO410436   7.231   6.309   7.580 -0.1471  0.2056  0.1130
  855SSM    OH110437   7.243   6.249   7.188 -0.1269  0.1291 -0.2961
  855SSM    AM210438   6.996   6.402   7.166 -0.1116 -0.1033  0.1044
  855SSM    T1A10439   7.129   6.130   6.872 -0.1788  0.3078 -0.3969
  855SSM    C2A10440   7.032   5.995   6.517  0.0020  0.1419 -0.0574
  855SSM    C3A10441   6.917   6.010   6.051 -0.0377  0.1777  0.0033
  855SSM    C4A10442   6.729   6.030   5.572  0.0881  0.3550  0.0468
  855SSM    C1B10443   6.876   6.558   6.808  0.5045 -0.0200 -0.0718
  855SSM    C2B10444   6.737   6.765   6.306  0.0314  0.1714 -0.0358
  855SSM    C3B10445   6.474   6.962   5.968 -0.0651  0.0291 -0.4827
  855SSM    C4B10446   6.094   6.920   5.577  0.2502 -0.2954  0.2266
  856SSM    NC310447  22.208   0.541   7.615  0.0207  0.1452  0.2428
  856SSM    PO410448  22.575   0.725   7.735 -0.0529  0.1568  0.0326
  856SSM    OH110449  22.860   0.711   7.503  0.3716  0.2243 -0.2227
  856SSM    AM210450  22.686   0.855   7.310  0.0860  0.0060 -0.2170
  856SSM    T1A10451  23.085   0.925   7.378 -0.0800  0.2626 -0.0865
  856SSM    C2A10452  23.141   1.006   7.008  0.0576  0.1833  0.1733
  856SSM    C3A10453  23.120   1.027   6.564  0.1430 -0.4516 -0.0072
  856SSM    C4A10454  23.295   1.067   6.089  0.0776  0.1325  0.2103
  856SSM    C1B10455  22.468   0.820   7.008  0.1264  0.0459  0.0437
  856SSM    C2B10456  22.333   0.805   6.539 -0.1748  0.0807 -0.1678
  856SSM    C3B10457  22.135   0.753   6.114 -0.1793 -0.0667 -0.0817
  856SSM    C4B10458  22.086   0.950   5.627  0.3683 -0.0729 -0.1773
  857SSM    NC310459   6.334  15.706   7.279 -0.0598 -0.0221  0.0035
  857SSM    PO410460   6.268  16.036   7.444  0.0368  0.0327  0.0355
  857SSM    OH110461   6.436  16.281   7.227  0.2517  0.0990 -0.1124
  857SSM    AM210462   6.394  16.096   6.970 -0.0184  0.0092  0.1599
  857SSM    T1A10463   6.367  16.590   7.086  0.0247 -0.1254  0.2057
  857SSM    C2A10464   6.415  16.549   6.633 -0.1604 -0.1197  0.1378
  857SSM    C3A10465   6.468  16.450   6.175  0.1090  0.2145 -0.0971
  857SSM    C4A10466   6.761  16.295   5.788  0.0395 -0.2100  0.1857
  857SSM    C1B10467   6.404  15.991   6.614  0.1220  0.4285  0.0881
  857SSM    C2B10468   6.106  16.014   6.275  0.1068  0.1913  0.1150
  857SSM    C3B10469   6.164  16.226   5.815 -0.1466  0.2893 -0.2545
  857SSM    C4B10470   6.415  16.292   5.390  0.4564  0.1495 -0.0729
  858SSM    NC310471  13.991  17.701   7.867  0.0592 -0.1178 -0.3017
  858SSM    PO410472  13.930  17.412   7.656  0.2934 -0.1069  0.0210
  858SSM    OH110473  13.928  17.391   7.271  0.1493 -0.0862  0.0566
  858SSM    AM210474  14.164  17.199   7.253  0.1404 -0.4481  0.0488
  858SSM    T1A10475  13.915  17.335   6.939 -0.1481 -0.4345 -0.2142
  858SSM    C2A10476  14.031  17.376   6.566 -0.3093 -0.3066 -0.2362
  858SSM    C3A10477  14.168  17.229   6.111 -0.0386  0.1573  0.0253
  858SSM    C4A10478  14.200  17.196   5.663 -0.3468  0.0528  0.1040
  858SSM    C1B10479  14.484  17.275   7.094 -0.3709 -0.4493 -0.0405
  858SSM    C2B10480  14.560  17.350   6.633  0.3169  0.0622 -0.0579
  858SSM    C3B10481  14.608  17.503   6.165  0.0146 -0.1197 -0.0846
  858SSM    C4B10482  14.710  17.629   5.725  0.2545  0.0828 -0.0152
  859SSM    NC310483  12.046  22.819   7.467  0.1823 -0.0683  0.1175
  859SSM    PO410484  11.742  22.760   7.666  0.1523 -0.2784 -0.2062
  859SSM    OH110485  11.412  22.940   7.562  0.0590  0.1266  0.1806
  859SSM    AM210486  11.598  23.037   7.338  0.0575  0.4834  0.1826
  859SSM    T1A10487  11.120  22.889   7.389  0.0266 -0.0931 -0.0795
  859SSM    C2A10488  11.068  22.769   7.024 -0.0525  0.1697 -0.0987
  859SSM    C3A10489  10.995  22.568   6.570  0.0278 -0.0300  0.1070
  859SSM    C4A10490  10.923  22.581   6.098 -0.0971  0.0100 -0.2236
  859SSM    C1B10491  11.769  23.051   6.978  0.1953 -0.1162 -0.1889
  859SSM    C2B10492  11.771  22.968   6.475  0.1046  0.0407 -0.0658
  859SSM    C3B10493  11.868  22.731   6.077  0.2676  0.1610 -0.3374
  859SSM    C4B10494  12.049  22.642   5.620  0.4165 -0.0699 -0.1519
  860SSM    NC310495  25.787  23.197   7.667 -0.0155 -0.0005  0.3106
  860SSM    PO410496  25.919  23.554   7.528 -0.2807 -0.0391 -0.2942
  860SSM    OH110497  26.167  23.602   7.232 -0.1571 -0.2069 -0.0953
  860SSM    AM210498  25.938  23.581   7.033  0.1453 -0.1888 -0.1731
  860SSM    T1A10499  26.353  23.432   7.008 -0.1849 -0.2749  0.4689
  860SSM    C2A10500  26.418  23.471   6.615  0.0463  0.1137 -0.1381
  860SSM    C3A10501  26.291  23.670   6.213  0.1113 -0.1394 -0.0117
  860SSM    C4A10502  26.217  23.895   5.813 -0.2236  0.1860 -0.0698
  860SSM    C1B10503  25.900  23.461   6.654  0.0291 -0.3558  0.0409
  860SSM    C2B10504  25.962  23.330   6.152 -0.1612 -0.1115  0.1295
  860SSM    C3B10505  26.093  23.245   5.764 -0.1249 -0.1906  0.2399
  860SSM    C4B10506  26.221  23.229   5.280  0.0478 -0.0136 -0.0388
  861SSM    NC310507   2.325   5.008   7.978  0.0131  0.2758  0.0767
  861SSM    PO410508   2.111   5.358   8.003 -0.0179  0.2150  0.0891
  861SSM    OH110509   2.289   5.509   7.731 -0.1290 -0.1390 -0.0512
  861SSM    AM210510   2.267   5.251   7.559  0.1058 -0.3946 -0.3686
  861SSM    T1A10511   2.130   5.654   7.460  0.1847 -0.0586  0.2376
  861SSM    C2A10512   2.062   5.709   7.072 -0.3158  0.1149  0.2154
  861SSM    C3A10513   1.868   5.878   6.662  0.0065 -0.0930  0.1823
  861SSM    C4A10514   1.588   5.815   6.226  0.0976 -0.2640  0.2978
  861SSM    C1B10515   2.145   5.237   7.190  0.1438  0.1688  0.1176
  861SSM    C2B10516   1.990   5.251   6.762 -0.3365 -0.3473  0.1117
  861SSM    C3B10517   1.863   5.259   6.284  0.1283  0.3283  0.0884
  861SSM    C4B10518   2.030   5.196   5.850  0.2335 -0.1240  0.1747
  862SSM    NC310519   6.248   0.751   7.852 -0.2757 -0.1398 -0.2573
  862SSM    PO410520   6.554   1.025   7.955  0.0665  0.1039 -0.2807
  862SSM    OH110521   6.421   1.214   7.673  0.2431 -0.1705 -0.3665
  862SSM    AM210522   6.407   0.996   7.456  0.0989 -0.0569  0.2554
  862SSM    T1A10523   6.137   1.353   7.523 -0.2473  0.1791  0.2648
  862SSM    C2A10524   6.091   1.485   7.160 -0.1005  0.0053 -0.2846
  862SSM    C3A10525   5.982   1.418   6.691  0.1390 -0.1023 -0.2459
  862SSM    C4A10526   5.937   1.351   6.242 -0.0007  0.1197  0.3900
  862SSM    C1B10527   6.341   0.808   7.136  0.0369  0.3061 -0.0332
  862SSM    C2B10528   6.520   0.707   6.702 -0.2436  0.0242  0.0289
  862SSM    C3B10529   6.491   0.473   6.308  0.1008 -0.2907  0.0393
  862SSM    C4B10530   6.276   0.395   5.944 -0.0092  0.1010  0.0584
  863SSM    NC310531  27.074  24.663   8.075 -0.1781  0.2917 -0.0673
  863SSM    PO410532  26.870  24.567   7.787 -0.2950  0.0911  0.1175
  863SSM    OH110533  26.901  24.462   7.441  0.2233 -0.1289  0.0064
  863SSM    AM210534  26.806  24.712   7.333  0.1039  0.0341 -0.0358
  863SSM    T1A10535  26.979  24.309   7.156 -0.1858  0.0254  0.4123
  863SSM    C2A10536  26.863  24.036   6.851 -0.0369 -0.1199  0.0209
  863SSM    C3A10537  26.732  23.970   6.387 -0.1992 -0.0171  0.2048
  863SSM    C4A10538  26.695  24.040   5.935  0.1307 -0.1866 -0.2510
  863SSM    C1B10539  26.703  24.928   7.029  0.1348  0.0235 -0.1888
  863SSM    C2B10540  26.921  24.966   6.557  0.0648  0.0909 -0.0843
  863SSM    C3B10541  26.955  25.091   6.064  0.2580  0.2378 -0.0669
  863SSM    C4B10542  27.075  25.146   5.658 -0.0752 -0.0199 -0.0265
  864SSM    NC310543  21.264   7.373   7.630  0.0229 -0.0991 -0.0366
  864SSM    PO410544  21.558   7.656   7.671  0.1330 -0.1083  0.0376
  864SSM    OH110545  21.735   7.656   7.334 -0.1477  0.0131 -0.1956
  864SSM    AM210546  21.501   7.781   7.178  0.0225  0.5073 -0.1137
  864SSM    T1A10547  21.875   7.772   7.033 -0.0949  0.0970 -0.4666
  864SSM    C2A10548  21.975   7.599   6.754 -0.1319 -0.2145 -0.1096
  864SSM    C3A10549  22.043   7.586   6.251 -0.3699 -0.0993  0.1096
  864SSM    C4A10550  22.264   7.383   5.813  0.1263  0.0971  0.0664
  864SSM    C1B10551  21.466   7.880   6.828 -0.1230  0.0843  0.0565
  864SSM    C2B10552  21.529   7.981   6.323  0.3021 -0.0499  0.3520
  864SSM    C3B10553  21.583   8.170   5.864 -0.0452  0.2057 -0.0752
  864SSM    C4B10554  21.591   8.024   5.441 -0.1554 -0.1137  0.0755
  865SSM    NC310555   0.484  10.501   7.640  0.3925  0.0343 -0.0991
  865SSM    PO410556   0.154  10.294   7.766  0.0787 -0.3439  0.1923
  865SSM    OH110557  -0.117  10.359   7.508  0.0964  0.1800  0.3135
  865SSM    AM210558   0.092  10.552   7.376  0.1445  0.3239  0.3253
  865SSM    T1A10559  -0.220  10.320   7.188 -0.3442  0.0859 -0.0748
  865SSM    C2A10560  -0.289  10.381   6.799  0.1225  0.0236 -0.1824
  865SSM    C3A10561  -0.387  10.550   6.406  0.1740 -0.1232 -0.1403
  865SSM    C4A10562  -0.343  10.585   5.910  0.3273  0.1045  0.2327
  865SSM    C1B10563   0.245  10.620   7.056 -0.1258 -0.0610 -0.0668
  865SSM    C2B10564   0.182  10.647   6.549 -0.1721  0.0097 -0.0389
  865SSM    C3B10565   0.088  10.705   6.125 -0.1665 -0.1601 -0.0234
  865SSM    C4B10566   0.013  10.804   5.625  0.0627 -0.2618 -0.2588
  866SSM    NC310567  21.829   0.702   8.110  0.0117 -0.2726  0.0882
  866SSM    PO410568  22.090   1.010   7.983  0.1063 -0.1634 -0.0107
  866SSM    OH110569  22.204   1.004   7.641  0.0643  0.3207  0.2976
  866SSM    AM210570  21.950   1.184   7.558 -0.1383  0.1306  0.2745
  866SSM    T1A10571  22.221   1.039   7.294 -0.3060  0.0509 -0.1271
  866SSM    C2A10572  22.085   1.149   6.936  0.1081  0.0344  0.0473
  866SSM    C3A10573  22.089   1.299   6.526  0.0297 -0.1421 -0.3433
  866SSM    C4A10574  22.087   1.617   6.156 -0.0617 -0.3000 -0.0353
  866SSM    C1B10575  21.686   1.314   7.262  0.1358  0.1132 -0.2728
  866SSM    C2B10576  21.719   1.513   6.837 -0.0880 -0.3108 -0.0793
  866SSM    C3B10577  21.716   1.766   6.435  0.0603 -0.2449 -0.2041
  866SSM    C4B10578  21.847   2.162   6.246 -0.0771  0.0873 -0.1622
  867SSM    NC310579  18.872  24.897   8.210  0.0773 -0.0990  0.2328
  867SSM    PO410580  18.907  24.926   7.838  0.2797  0.3299 -0.1078
  867SSM    OH110581  19.011  24.783   7.533 -0.2664 -0.1594  0.1027
  867SSM    AM210582  18.735  24.707   7.423 -0.1348 -0.2921  0.0073
  867SSM    T1A10583  19.095  24.874   7.242 -0.0091 -0.0113  0.1678
  867SSM    C2A10584  19.010  24.865   6.817  0.1765  0.0556 -0.2944
  867SSM    C3A10585  18.976  24.832   6.333 -0.0642  0.4034 -0.1323
  867SSM    C4A10586  19.117  24.647   5.868  0.3465  0.3330 -0.0275
  867SSM    C1B10587  18.624  24.696   7.012  0.2163 -0.4070  0.1033
  867SSM    C2B10588  18.651  24.500   6.513  0.0985  0.1246  0.0785
  867SSM    C3B10589  18.580  24.475   6.054  0.4033  0.0962  0.1050
  867SSM    C4B10590  18.569  24.698   5.553 -0.5229 -0.3437 -0.0588
  868SSM    NC310591   7.755   3.181   7.175 -0.0729 -0.1482  0.1922
  868SSM    PO410592   8.133   3.159   7.321  0.3461  0.0835 -0.1319
  868SSM    OH110593   8.270   3.056   7.011  0.1982  0.3769 -0.2110
  868SSM    AM210594   8.077   3.230   6.827  0.1655  0.0592  0.2160
  868SSM    T1A10595   8.404   2.818   6.808 -0.3155  0.1964  0.0510
  868SSM    C2A10596   8.305   2.486   6.611 -0.0718  0.2085  0.2407
  868SSM    C3A10597   8.504   2.183   6.311  0.1435 -0.2732  0.4146
  868SSM    C4A10598   8.808   2.179   5.940  0.3551 -0.3402  0.0135
  868SSM    C1B10599   8.114   3.366   6.428  0.0652 -0.1408 -0.0275
  868SSM    C2B10600   8.174   3.439   5.984 -0.1015 -0.0517  0.0391
  868SSM    C3B10601   8.570   3.614   5.826  0.2499 -0.1316  0.4463
  868SSM    C4B10602   8.811   3.858   5.403 -0.0030 -0.1945  0.0804
  869SSM    NC310603  12.615   3.166   7.836  0.0404  0.1787  0.0114
  869SSM    PO410604  12.908   2.929   7.850 -0.1353 -0.1233 -0.1874
  869SSM    OH110605  13.097   3.081   7.629 -0.3620 -0.2638  0.2385
  869SSM    AM210606  13.376   2.992   7.640  0.1158 -0.3428  0.4841
  869SSM    T1A10607  13.122   3.058   7.286  0.0025  0.0153 -0.0642
  869SSM    C2A10608  13.040   2.964   6.881  0.0722 -0.1456 -0.1493
  869SSM    C3A10609  12.909   2.885   6.435  0.1471  0.0833 -0.0854
  869SSM    C4A10610  12.971   2.608   6.046  0.0782 -0.1186 -0.0947
  869SSM    C1B10611  13.528   2.829   7.330 -0.0665  0.0103  0.1730
  869SSM    C2B10612  13.512   2.809   6.814 -0.1656 -0.0101  0.0125
  869SSM    C3B10613  13.726   3.014   6.406  0.1546 -0.0591  0.1031
  869SSM    C4B10614  13.801   3.055   5.995  0.0335  0.1920  0.1418
  870SSM    NC310615  17.107  14.366   7.300  0.1108  0.1950  0.0246
  870SSM    PO410616  16.840  14.076   7.269 -0.0625  0.1031 -0.0134
  870SSM    OH110617  16.873  13.986   6.933 -0.0484 -0.2223  0.3065
  870SSM    AM210618  16.983  14.246   6.843 -0.1072 -0.3021 -0.1367
  870SSM    T1A10619  17.085  13.853   6.685  0.0665 -0.4018  0.0361
  870SSM    C2A10620  17.075  13.982   6.357 -0.2204  0.1264  0.1784
  870SSM    C3A10621  17.173  14.130   5.914 -0.0196 -0.0131 -0.3190
  870SSM    C4A10622  17.209  14.485   5.549 -0.0488  0.0691 -0.0182
  870SSM    C1B10623  17.057  14.454   6.538  0.1314  0.2668  0.0341
  870SSM    C2B10624  16.792  14.788   6.192 -0.4318  0.2213 -0.1255
  870SSM    C3B10625  16.588  15.213   6.157 -0.0508  0.0463 -0.2317
  870SSM    C4B10626  16.322  15.496   6.029 -0.4119  0.0537 -0.0031
  871SSM    NC310627  17.771   1.675   7.920 -0.0255 -0.1136  0.1824
  871SSM    PO410628  17.507   1.973   7.864 -0.1516  0.0021 -0.2291
  871SSM    OH110629  17.525   2.051   7.499 -0.1522  0.1512  0.3857
  871SSM    AM210630  17.752   1.853   7.473  0.2051  0.2364 -0.1221
  871SSM    T1A10631  17.454   1.990   7.151 -0.1343 -0.1988 -0.3289
  871SSM    C2A10632  17.215   2.152   6.867  0.1334 -0.1919  0.0814
  871SSM    C3A10633  16.918   2.271   6.511  0.0451 -0.1160  0.0329
  871SSM    C4A10634  16.664   2.446   6.072 -0.0883  0.4489 -0.0492
  871SSM    C1B10635  17.815   1.710   7.128 -0.2628  0.3780 -0.1088
  871SSM    C2B10636  17.737   1.607   6.583  0.0862 -0.4514  0.0562
  871SSM    C3B10637  17.465   1.454   6.168  0.0043 -0.2918  0.2165
  871SSM    C4B10638  17.235   1.703   5.770 -0.1661  0.4397 -0.0278
  872SSM    NC310639  15.633  17.608   7.618  0.3934 -0.0367 -0.1040
  872SSM    PO410640  15.248  17.554   7.688 -0.4508 -0.3895  0.2080
  872SSM    OH110641  15.273  17.245   7.511  0.0259 -0.0214  0.1784
  872SSM    AM210642  15.398  17.396   7.265 -0.2097 -0.0476 -0.1598
  872SSM    T1A10643  15.352  16.961   7.329 -0.1580  0.1099  0.2849
  872SSM    C2A10644  15.436  16.885   6.940 -0.0521  0.2103 -0.1494
  872SSM    C3A10645  15.519  16.893   6.465  0.2539  0.0683 -0.0207
  872SSM    C4A10646  15.448  16.968   6.013  0.2037  0.0309  0.1527
  872SSM    C1B10647  15.409  17.449   6.933 -0.1649  0.0975 -0.1164
  872SSM    C2B10648  15.484  17.430   6.397 -0.0793 -0.0399 -0.3197
  872SSM    C3B10649  15.593  17.433   5.879  0.0913  0.4142  0.0882
  872SSM    C4B10650  15.624  17.516   5.399  0.0205  0.2805 -0.0458
  873SSM    NC310651  23.710  23.556   7.776  0.2229 -0.0799 -0.0806
  873SSM    PO410652  23.520  23.601   7.422 -0.2896  0.1861 -0.1611
  873SSM    OH110653  23.551  23.331   7.136 -0.1110 -0.0233  0.2842
  873SSM    AM210654  23.743  23.515   6.968 -0.0837 -0.2901 -0.0017
  873SSM    T1A10655  23.610  23.158   6.857  0.1018 -0.0545 -0.0467
  873SSM    C2A10656  23.702  23.034   6.508 -0.0665  0.1477  0.1376
  873SSM    C3A10657  23.662  23.263   6.089  0.2965  0.2566 -0.0889
  873SSM    C4A10658  23.637  23.596   5.734 -0.1419  0.0343  0.2354
  873SSM    C1B10659  23.781  23.569   6.662 -0.0103  0.0178  0.0108
  873SSM    C2B10660  23.854  23.716   6.241  0.1726 -0.0300  0.0518
  873SSM    C3B10661  24.074  23.709   5.803 -0.2136 -0.1684  0.2796
  873SSM    C4B10662  24.348  23.565   5.479  0.0084  0.1107 -0.1356
  874SSM    NC310663  10.714   9.412   8.309 -0.0866  0.2079 -0.0009
  874SSM    PO410664  10.666   9.205   7.977 -0.3339  0.2272 -0.0197
  874SSM    OH110665  10.571   9.451   7.708  0.0343 -0.0604  0.2504
  874SSM    AM210666  10.521   9.216   7.526 -0.2029 -0.1817  0.4526
  874SSM    T1A10667  10.344   9.612   7.509  0.0891 -0.1802 -0.0248
  874SSM    C2A10668  10.422   9.519   7.101  0.0717 -0.0450 -0.0905
  874SSM    C3A10669  10.610   9.357   6.705  0.2568  0.2146 -0.0776
  874SSM    C4A10670  10.905   9.424   6.337 -0.4474  0.1069  0.0326
  874SSM    C1B10671  10.597   9.014   7.141 -0.0224 -0.1807 -0.1718
  874SSM    C2B10672  10.928   8.959   6.699 -0.3768 -0.0362  0.2330
  874SSM    C3B10673  11.080   8.982   6.235  0.1230  0.2059 -0.1309
  874SSM    C4B10674  11.323   8.690   5.957  0.0638  0.0145  0.2715
  875SSM    NC310675  12.751   5.598   8.298  0.0231  0.2099 -0.0727
  875SSM    PO410676  13.028   5.629   8.043  0.1821 -0.1118  0.0397
  875SSM    OH110677  12.870   5.485   7.773 -0.0997  0.3149 -0.0665
  875SSM    AM210678  13.000   5.216   7.751 -0.0940 -0.0901  0.0446
  875SSM    T1A10679  12.739   5.399   7.454 -0.0367  0.1444  0.2721
  875SSM    C2A10680  12.641   5.314   7.062 -0.0408  0.0050 -0.0383
  875SSM    C3A10681  12.704   5.349   6.587  0.0457 -0.2280  0.1500
  875SSM    C4A10682  12.770   5.201   6.102 -0.2675 -0.2058 -0.0601
  875SSM    C1B10683  12.887   4.976   7.418 -0.0938 -0.1321 -0.0118
  875SSM    C2B10684  12.917   4.981   6.855 -0.1871 -0.0393  0.1324
  875SSM    C3B10685  12.998   4.829   6.408 -0.1452  0.2324  0.2431
  875SSM    C4B10686  13.073   4.789   5.902  0.0443  0.0903  0.0203
  876SSM    NC310687   6.967  23.854   8.625 -0.1570 -0.2073 -0.0624
  876SSM    PO410688   6.608  23.748   8.454  0.4067  0.2245  0.0321
  876SSM    OH110689   6.771  23.796   8.149  0.0079 -0.2905  0.0486
  876SSM    AM210690   6.510  23.911   8.021 -0.0739  0.4451 -0.0301
  876SSM    T1A10691   6.778  23.589   7.879 -0.1329 -0.0234 -0.0119
  876SSM    C2A10692   6.852  23.420   7.516  0.2007  0.3914 -0.0270
  876SSM    C3A10693   6.653  23.399   7.085 -0.1120  0.1671 -0.1083
  876SSM    C4A10694   6.481  23.454   6.675 -0.0196 -0.0655 -0.0159
  876SSM    C1B10695   6.325  23.990   7.672  0.1471  0.0878  0.0911
  876SSM    C2B10696   6.218  24.234   7.252  0.4385 -0.2074  0.3820
  876SSM    C3B10697   6.035  24.298   6.800 -0.0083  0.2467 -0.0098
  876SSM    C4B10698   5.890  24.177   6.337 -0.0404  0.0381  0.1188
  877SSM    NC310699  24.741   1.302   8.135  0.1782  0.2493  0.1156
  877SSM    PO410700  24.678   1.688   8.110 -0.0885  0.1798  0.2548
  877SSM    OH110701  24.518   1.764   7.801  0.2539  0.0461  0.0338
  877SSM    AM210702  24.599   2.053   7.770 -0.0833  0.2691 -0.0166
  877SSM    T1A10703  24.335   1.801   7.527 -0.1686  0.2036 -0.0971
  877SSM    C2A10704  24.452   1.977   7.181 -0.3647  0.3151  0.2911
  877SSM    C3A10705  24.693   2.019   6.815 -0.0089  0.1137  0.2403
  877SSM    C4A10706  24.822   2.076   6.392  0.4344  0.0003 -0.1798
  877SSM    C1B10707  24.696   2.232   7.498 -0.1751 -0.1259 -0.2331
  877SSM    C2B10708  24.760   2.448   7.046  0.0223 -0.1483 -0.1794
  877SSM    C3B10709  25.130   2.403   6.653  0.0576 -0.0664 -0.1101
  877SSM    C4B10710  25.396   2.550   6.253  0.2665  0.1069 -0.0012
  878SSM    NC310711  15.286  10.963   7.230  0.2586 -0.1615 -0.1524
  878SSM    PO410712  15.654  10.962   7.107 -0.3138 -0.1035  0.2995
  878SSM    OH110713  15.641  10.596   6.946 -0.0130  0.0586  0.2492
  878SSM    AM210714  15.594  10.736   6.705 -0.0792 -0.5300  0.1373
  878SSM    T1A10715  15.538  10.311   6.814 -0.0332  0.0984 -0.1552
  878SSM    C2A10716  15.484  10.213   6.401 -0.0896 -0.1692 -0.2783
  878SSM    C3A10717  15.417  10.008   6.031 -0.1612 -0.0129  0.1186
  878SSM    C4A10718  15.394   9.776   5.632  0.0077 -0.1256 -0.1284
  878SSM    C1B10719  15.481  10.742   6.352  0.2370 -0.3014  0.0153
  878SSM    C2B10720  15.717  10.467   6.010 -0.1005  0.1454 -0.2006
  878SSM    C3B10721  16.115  10.562   5.734  0.0602 -0.0794  0.1963
  878SSM    C4B10722  16.449  10.707   5.347  0.2018  0.1358 -0.0038
  879SSM    NC310723   6.659  16.272   7.684 -0.3232 -0.1502 -0.1256
  879SSM    PO410724   7.036  16.377   7.707  0.1567  0.0364 -0.2325
  879SSM    OH110725   7.149  16.180   7.415 -0.2287 -0.0766 -0.2052
  879SSM    AM210726   6.947  16.348   7.227  0.4450 -0.3616 -0.2510
  879SSM    T1A10727   7.206  16.031   7.129  0.0475  0.0947  0.4868
  879SSM    C2A10728   7.186  15.793   6.850 -0.0823  0.2185 -0.1258
  879SSM    C3A10729   7.225  15.803   6.320 -0.0819  0.2281 -0.0855
  879SSM    C4A10730   7.243  15.811   5.813  0.0567  0.0857  0.0480
  879SSM    C1B10731   6.798  16.302   6.943 -0.4324  0.0596  0.1262
  879SSM    C2B10732   6.912  16.179   6.458 -0.3602 -0.0233 -0.1975
  879SSM    C3B10733   7.153  16.267   6.074 -0.1940 -0.0067 -0.0480
  879SSM    C4B10734   7.314  16.456   5.672  0.2471 -0.1406 -0.0546
  880SSM    NC310735  26.699  15.528   8.122 -0.1339  0.1055  0.0203
  880SSM    PO410736  26.502  15.764   7.865  0.2622  0.0765 -0.0265
  880SSM    OH110737  26.490  15.677   7.504 -0.0595  0.2317 -0.2969
  880SSM    AM210738  26.533  15.938   7.385 -0.1504  0.0452  0.1242
  880SSM    T1A10739  26.445  15.611   7.174  0.2088  0.0831 -0.0813
  880SSM    C2A10740  26.297  15.447   6.815  0.1119 -0.0726  0.0312
  880SSM    C3A10741  26.357  15.507   6.341 -0.2031 -0.3084  0.0035
  880SSM    C4A10742  26.672  15.560   5.920  0.1864  0.1343  0.2865
  880SSM    C1B10743  26.602  16.131   7.047 -0.1228  0.0507 -0.1268
  880SSM    C2B10744  26.805  16.143   6.568 -0.3322 -0.2531  0.0032
  880SSM    C3B10745  26.768  16.184   6.104  0.3756 -0.0343  0.1795
  880SSM    C4B10746  26.538  16.196   5.646 -0.0898 -0.0315  0.0281
  881SSM    NC310747  23.939   5.601   8.097 -0.1888  0.1604 -0.0138
  881SSM    PO410748  23.605   5.850   8.014  0.1230  0.0514  0.0044
  881SSM    OH110749  23.652   5.838   7.654  0.0412  0.0211  0.0522
  881SSM    AM210750  23.417   6.004   7.584  0.1169 -0.0137  0.1609
  881SSM    T1A10751  23.701   5.914   7.291  0.3147  0.3766  0.0289
  881SSM    C2A10752  23.746   5.878   6.897  0.2416 -0.2104 -0.1111
  881SSM    C3A10753  23.637   6.028   6.495 -0.0737 -0.3431  0.1316
  881SSM    C4A10754  23.663   6.335   6.098  0.2417  0.1394 -0.3411
  881SSM    C1B10755  23.439   6.301   7.394  0.3114  0.0706  0.1700
  881SSM    C2B10756  23.420   6.450   6.926  0.1118 -0.1888 -0.2763
  881SSM    C3B10757  23.354   6.478   6.410 -0.0203 -0.2841  0.0026
  881SSM    C4B10758  23.194   6.364   5.970 -0.2054  0.2352  0.3680
  882SSM    NC310759  12.906  13.968   7.438 -0.1103  0.1404  0.1539
  882SSM    PO410760  13.199  13.763   7.328 -0.2070 -0.1174 -0.1468
  882SSM    OH110761  13.377  13.898   7.037 -0.2018  0.3005  0.1308
  882SSM    AM210762  13.126  13.919   6.878 -0.0446  0.0852 -0.2508
  882SSM    T1A10763  13.524  13.936   6.739 -0.1572  0.0331 -0.3237
  882SSM    C2A10764  13.482  13.881   6.338 -0.2250 -0.1211  0.1804
  882SSM    C3A10765  13.643  13.919   5.897 -0.1404 -0.1642  0.2264
  882SSM    C4A10766  13.525  14.024   5.449 -0.0791  0.1436  0.1355
  882SSM    C1B10767  12.997  13.931   6.493 -0.1129 -0.0665  0.3014
  882SSM    C2B10768  12.998  13.838   6.093  0.1040  0.1390 -0.1834
  882SSM    C3B10769  12.783  13.664   5.726 -0.0514 -0.1406  0.2331
  882SSM    C4B10770  12.541  13.785   5.295  0.0074  0.2812 -0.4666
  883SSM    NC310771  23.131  12.026   8.131  0.1630 -0.1917  0.0484
  883SSM    PO410772  23.026  12.250   7.808 -0.5415 -0.4151 -0.2915
  883SSM    OH110773  23.164  12.565   7.592 -0.0987 -0.2618 -0.0117
  883SSM    AM210774  23.402  12.379   7.487 -0.2071  0.2139 -0.2099
  883SSM    T1A10775  23.244  12.708   7.318  0.4337  0.2688  0.2290
  883SSM    C2A10776  23.354  12.686   6.912  0.1048 -0.2998 -0.0279
  883SSM    C3A10777  23.434  12.601   6.430 -0.0217 -0.2537  0.1093
  883SSM    C4A10778  23.719  12.569   6.060 -0.2295 -0.0821 -0.0766
  883SSM    C1B10779  23.614  12.300   7.198  0.0909 -0.1048  0.0516
  883SSM    C2B10780  23.524  11.906   6.882  0.1387 -0.3167  0.1807
  883SSM    C3B10781  23.501  11.499   6.670 -0.0660 -0.2325  0.0346
  883SSM    C4B10782  23.563  11.066   6.711  0.1607  0.3815  0.3736
  884SSM    NC310783  10.726  18.679   7.457  0.2432 -0.1297 -0.1297
  884SSM    PO410784  11.099  18.529   7.488  0.1854  0.0807  0.1406
  884SSM    OH110785  11.182  18.576   7.146  0.0352 -0.1786 -0.1923
  884SSM    AM210786  11.131  18.887   7.126 -0.2120 -0.1451 -0.3378
  884SSM    T1A10787  11.366  18.568   6.877 -0.0586  0.1772  0.0541
  884SSM    C2A10788  11.401  18.654   6.529 -0.1673  0.0669 -0.1604
  884SSM    C3A10789  11.673  18.702   6.173 -0.1033  0.0557  0.0405
  884SSM    C4A10790  11.984  18.722   5.845  0.1388 -0.1644 -0.1720
  884SSM    C1B10791  11.156  19.106   6.818 -0.0813 -0.0489  0.2579
  884SSM    C2B10792  11.119  19.210   6.290  0.0179  0.3304  0.1867
  884SSM    C3B10793  11.055  19.188   5.839  0.1520 -0.2336 -0.0303
  884SSM    C4B10794  10.876  19.053   5.319 -0.3436 -0.2494  0.0906
  885SSM    NC310795   2.724   5.284   7.528  0.1145 -0.1652 -0.2857
  885SSM    PO410796   2.609   4.911   7.577 -0.0316  0.1419 -0.0870
  885SSM    OH110797   2.409   4.822   7.230  0.1569  0.1097  0.1085
  885SSM    AM210798   2.582   5.039   7.106 -0.1304 -0.0811  0.0553
  885SSM    T1A10799   2.282   4.805   6.914 -0.2940 -0.2104 -0.1091
  885SSM    C2A10800   2.135   4.844   6.560 -0.2754 -0.1850  0.0674
  885SSM    C3A10801   2.033   4.779   6.092 -0.1546  0.1970 -0.1518
  885SSM    C4A10802   1.673   4.856   5.776 -0.0670  0.1144  0.0914
  885SSM    C1B10803   2.494   5.134   6.764 -0.1431  0.2970 -0.0729
  885SSM    C2B10804   2.390   5.174   6.270 -0.0890  0.0192 -0.0793
  885SSM    C3B10805   2.509   5.409   5.846 -0.0201  0.1451 -0.0929
  885SSM    C4B10806   2.808   5.673   5.597 -0.5140  0.1877  0.0615
  886SSM    NC310807  15.848   5.019   7.238  0.0526 -0.2594 -0.2363
  886SSM    PO410808  16.166   4.873   7.447 -0.0652 -0.2769 -0.0146
  886SSM    OH110809  16.388   4.558   7.409 -0.1166  0.1836 -0.1336
  886SSM    AM210810  16.529   4.739   7.168 -0.0935  0.4634  0.2652
  886SSM    T1A10811  16.392   4.316   7.161  0.1139 -0.1821 -0.1772
  886SSM    C2A10812  16.356   4.152   6.823  0.1749 -0.0304 -0.0317
  886SSM    C3A10813  16.318   4.062   6.374  0.0815  0.0312 -0.0119
  886SSM    C4A10814  16.270   4.163   5.880 -0.1688  0.0186  0.1822
  886SSM    C1B10815  16.513   4.854   6.752  0.1424 -0.1142  0.0922
  886SSM    C2B10816  16.317   4.901   6.284  0.2805 -0.1342  0.0431
  886SSM    C3B10817  16.228   4.732   5.891 -0.0945  0.2930  0.4778
  886SSM    C4B10818  16.366   4.472   5.502  0.0751 -0.0965  0.1599
  887SSM    NC310819  18.127  20.529   7.623 -0.0797 -0.1114  0.0260
  887SSM    PO410820  17.923  20.236   7.827 -0.0587  0.0515  0.2954
  887SSM    OH110821  17.733  20.081   7.509  0.0545 -0.0098  0.0701
  887SSM    AM210822  17.747  20.353   7.396  0.3616 -0.1584 -0.0293
  887SSM    T1A10823  17.708  19.982   7.171 -0.1744  0.4794 -0.0174
  887SSM    C2A10824  17.662  20.085   6.713  0.0742 -0.0225 -0.1258
  887SSM    C3A10825  17.453  20.091   6.268  0.0762  0.0289  0.0687
  887SSM    C4A10826  17.150  20.082   5.857 -0.0612  0.0745 -0.2405
  887SSM    C1B10827  17.758  20.547   7.072  0.1023 -0.0142 -0.0634
  887SSM    C2B10828  17.576  20.631   6.584 -0.1836 -0.1246 -0.3257
  887SSM    C3B10829  17.550  20.635   6.080  0.0388  0.0735 -0.1306
  887SSM    C4B10830  17.450  20.399   5.589 -0.1224 -0.0988 -0.1507
  888SSM    NC310831   4.041   9.174   7.176  0.1721  0.0307  0.0187
  888SSM    PO410832   4.416   9.080   7.237 -0.2850 -0.1140  0.1926
  888SSM    OH110833   4.661   9.137   6.961  0.0124 -0.1245 -0.0886
  888SSM    AM210834   4.466   9.031   6.752 -0.1228  0.0394  0.0908
  888SSM    T1A10835   4.861   9.013   6.699 -0.1576  0.1396  0.0025
  888SSM    C2A10836   4.938   9.056   6.352  0.2682 -0.0482 -0.1641
  888SSM    C3A10837   4.890   9.231   5.912 -0.0499  0.2244  0.0845
  888SSM    C4A10838   5.035   9.432   5.486  0.0210 -0.2573  0.1127
  888SSM    C1B10839   4.454   9.082   6.388  0.1330 -0.2273  0.1361
  888SSM    C2B10840   4.399   9.151   5.856  0.0418  0.1772  0.1872
  888SSM    C3B10841   4.534   9.181   5.413 -0.3139  0.1704 -0.0423
  888SSM    C4B10842   4.548   9.058   4.954 -0.0965  0.1091 -0.0416
  889SSM    NC310843  27.422   2.073   7.596  0.1925  0.0722 -0.1973
  889SSM    PO410844  27.503   2.183   8.001 -0.0540  0.2556 -0.3078
  889SSM    OH110845  27.497   2.545   7.839  0.2878 -0.1299 -0.0576
  889SSM    AM210846  27.195   2.478   7.791 -0.1516 -0.0973  0.0955
  889SSM    T1A10847  27.417   2.782   7.589 -0.2796 -0.1195 -0.3784
  889SSM    C2A10848  27.398   2.790   7.159 -0.0405 -0.2214  0.0643
  889SSM    C3A10849  27.278   2.886   6.731  0.0150 -0.0183  0.1938
  889SSM    C4A10850  26.999   2.869   6.260 -0.1062 -0.0416  0.2517
  889SSM    C1B10851  27.111   2.367   7.369 -0.1639 -0.1080 -0.2019
  889SSM    C2B10852  26.848   2.685   7.067  0.0536  0.1970  0.3421
  889SSM    C3B10853  26.632   2.942   6.692 -0.2288 -0.0507  0.0681
  889SSM    C4B10854  26.635   3.372   6.426 -0.0388  0.1567 -0.1500
  890SSM    NC310855   4.420  27.105   8.133  0.1864 -0.2317  0.0442
  890SSM    PO410856   3.975  27.004   8.082 -0.5958  0.0867  0.3961
  890SSM    OH110857   3.871  26.932   7.741 -0.0104 -0.1176 -0.0922
  890SSM    AM210858   3.893  27.224   7.622 -0.3636  0.0348 -0.3455
  890SSM    T1A10859   3.934  26.767   7.439 -0.0007  0.0794 -0.3533
  890SSM    C2A10860   3.859  26.747   7.032  0.2138 -0.1423 -0.2282
  890SSM    C3A10861   4.026  26.617   6.608 -0.0304  0.0283  0.0214
  890SSM    C4A10862   4.082  26.609   6.109 -0.0362 -0.2458  0.1706
  890SSM    C1B10863   3.805  27.448   7.343 -0.0240 -0.2177 -0.4819
  890SSM    C2B10864   3.710  27.417   6.880  0.0965 -0.0610 -0.0428
  890SSM    C3B10865   3.609  27.414   6.428  0.0121 -0.0113 -0.0923
  890SSM    C4B10866   3.445  27.741   6.076 -0.0439  0.0581 -0.0824
  891SSM    NC310867  20.202   6.574   6.907 -0.1087  0.1276 -0.3838
  891SSM    PO410868  19.920   6.721   7.164 -0.0067  0.0887 -0.1531
  891SSM    OH110869  19.744   6.939   6.904 -0.0695  0.0996 -0.6776
  891SSM    AM210870  19.687   6.704   6.697  0.2919 -0.1699 -0.0730
  891SSM    T1A10871  19.785   7.107   6.604 -0.1885 -0.0554  0.1388
  891SSM    C2A10872  19.752   7.126   6.164  0.0242  0.2022 -0.0680
  891SSM    C3A10873  19.854   7.194   5.723 -0.0622 -0.0445  0.0065
  891SSM    C4A10874  19.993   7.229   5.242  0.0719  0.0565  0.0393
  891SSM    C1B10875  19.606   6.632   6.335  0.1611 -0.1152  0.0310
  891SSM    C2B10876  19.711   6.685   5.816  0.0946 -0.0426 -0.0563
  891SSM    C3B10877  19.895   6.724   5.342  0.2556 -0.2027  0.3643
  891SSM    C4B10878  19.799   6.686   4.806 -0.1287 -0.3662 -0.2060
  892SSM    NC310879  11.524   8.009   7.717  0.0764  0.0907  0.3029
  892SSM    PO410880  11.423   7.624   7.776 -0.0277  0.4749 -0.2875
  892SSM    OH110881  11.460   7.437   7.459  0.0094  0.3734  0.3306
  892SSM    AM210882  11.405   7.677   7.301 -0.1458 -0.1979  0.1565
  892SSM    T1A10883  11.650   7.416   7.183 -0.2782  0.0747  0.0875
  892SSM    C2A10884  11.887   7.483   6.887 -0.1526  0.0011  0.1227
  892SSM    C3A10885  12.091   7.385   6.411  0.2269 -0.0096  0.0977
  892SSM    C4A10886  12.157   7.376   5.879 -0.0635 -0.3277 -0.0745
  892SSM    C1B10887  11.372   7.769   6.936  0.1441  0.1592 -0.1148
  892SSM    C2B10888  11.507   7.580   6.469  0.1653 -0.0929 -0.1086
  892SSM    C3B10889  11.772   7.623   6.068 -0.4940  0.2449 -0.1473
  892SSM    C4B10890  12.119   7.894   5.804 -0.0089  0.1311 -0.0679
  893SSM    NC310891   6.468  19.663   8.048 -0.3760 -0.1354  0.2802
  893SSM    PO410892   6.423  19.808   7.662 -0.0730  0.0637 -0.2423
  893SSM    OH110893   6.326  19.889   7.322 -0.2171 -0.1318 -0.0185
  893SSM    AM210894   6.582  19.800   7.195  0.1739  0.1434  0.3401
  893SSM    T1A10895   6.240  20.052   7.027 -0.0712 -0.0046 -0.3115
  893SSM    C2A10896   6.331  20.093   6.652  0.6063  0.0100  0.0827
  893SSM    C3A10897   6.359  20.137   6.210 -0.1076 -0.0424 -0.1619
  893SSM    C4A10898   6.387  20.056   5.721 -0.0456 -0.0755 -0.1443
  893SSM    C1B10899   6.842  19.873   6.865  0.3434 -0.2236  0.1152
  893SSM    C2B10900   6.828  20.013   6.367  0.0751 -0.0293  0.1781
  893SSM    C3B10901   6.853  20.112   5.885 -0.0649  0.2078  0.2229
  893SSM    C4B10902   6.972  20.019   5.416  0.4087  0.0039  0.3761
  894SSM    NC310903  22.559  24.599   7.776  0.0496 -0.1374  0.0582
  894SSM    PO410904  22.388  24.441   7.486 -0.1316 -0.0319 -0.0975
  894SSM    OH110905  22.094  24.404   7.247 -0.2420 -0.2589  0.0830
  894SSM    AM210906  22.289  24.527   7.046 -0.3926 -0.0244 -0.3765
  894SSM    T1A10907  21.905  24.423   6.947  0.0516  0.2370  0.0268
  894SSM    C2A10908  21.910  24.259   6.553  0.0531 -0.1778 -0.1573
  894SSM    C3A10909  21.836  24.045   6.109 -0.2064 -0.0322 -0.1533
  894SSM    C4A10910  21.787  23.936   5.657  0.3319  0.0243 -0.0603
  894SSM    C1B10911  22.286  24.555   6.684 -0.0957 -0.1841 -0.1975
  894SSM    C2B10912  22.143  24.514   6.145 -0.0454 -0.1026 -0.1993
  894SSM    C3B10913  22.118  24.403   5.699 -0.1178 -0.2283 -0.3565
  894SSM    C4B10914  22.023  24.127   5.320 -0.1619 -0.1441  0.2917
  895SSM    NC310915  17.309   4.133   7.615 -0.1323  0.0036  0.0852
  895SSM    PO410916  17.243   3.968   7.280  0.0681  0.0600  0.0390
  895SSM    OH110917  17.102   3.638   7.101 -0.0459  0.1154  0.0138
  895SSM    AM210918  17.291   3.652   6.881  0.0607 -0.1964  0.8446
  895SSM    T1A10919  17.038   3.352   6.888 -0.1672 -0.1166 -0.0273
  895SSM    C2A10920  16.967   3.326   6.486 -0.1406  0.3436  0.2813
  895SSM    C3A10921  16.966   3.461   6.077  0.3378  0.0902  0.0205
  895SSM    C4A10922  16.987   3.456   5.606  0.0473  0.0933 -0.3512
  895SSM    C1B10923  17.524   3.560   6.514  0.1703  0.0612  0.0369
  895SSM    C2B10924  17.424   3.636   6.068 -0.1873 -0.1685 -0.1294
  895SSM    C3B10925  17.446   3.888   5.700 -0.2523 -0.1324 -0.3229
  895SSM    C4B10926  17.603   4.045   5.251 -0.0057  0.2165  0.0725
  896SSM    NC310927  12.694  23.297   7.385 -0.2223 -0.2168 -0.1693
  896SSM    PO410928  12.875  22.924   7.370 -0.0632  0.0047 -0.1516
  896SSM    OH110929  12.944  22.577   7.246 -0.2128 -0.2153  0.1208
  896SSM    AM210930  13.121  22.726   7.031 -0.2713 -0.1771 -0.3921
  896SSM    T1A10931  12.924  22.289   7.044 -0.6057 -0.2385  0.1807
  896SSM    C2A10932  12.749  22.091   6.675  0.0410 -0.2322 -0.1060
  896SSM    C3A10933  12.578  22.026   6.300  0.0366  0.1039  0.1961
  896SSM    C4A10934  12.627  22.241   5.845  0.1879  0.0152 -0.0583
  896SSM    C1B10935  13.254  22.836   6.733  0.1699 -0.1580  0.1948
  896SSM    C2B10936  13.516  22.929   6.280  0.0573 -0.0526 -0.0884
  896SSM    C3B10937  13.420  22.876   5.796  0.0493 -0.1366  0.1907
  896SSM    C4B10938  13.422  23.069   5.330  0.0625 -0.0269 -0.3015
  897SSM    NC310939  25.644   5.254   8.157  0.0681 -0.0805 -0.0089
  897SSM    PO410940  25.511   5.621   8.042 -0.1613  0.0012  0.1385
  897SSM    OH110941  25.424   5.384   7.804  0.2279  0.3173  0.1408
  897SSM    AM210942  25.269   5.578   7.640 -0.0108  0.0179 -0.0232
  897SSM    T1A10943  25.311   5.104   7.620 -0.0687  0.5553  0.0955
  897SSM    C2A10944  25.400   4.805   7.402 -0.0456  0.0146  0.1199
  897SSM    C3A10945  25.549   4.610   6.996  0.1406 -0.0800 -0.1419
  897SSM    C4A10946  25.732   4.526   6.541 -0.0366  0.2883 -0.5252
  897SSM    C1B10947  25.277   5.656   7.267 -0.0742 -0.1102  0.0062
  897SSM    C2B10948  25.495   5.625   6.804 -0.0232 -0.1031  0.0521
  897SSM    C3B10949  25.656   5.541   6.325 -0.3590 -0.0244 -0.0060
  897SSM    C4B10950  25.978   5.331   6.008  0.0248  0.2681  0.0789
  898SSM    NC310951  25.430  21.103   7.010 -0.1298 -0.0063  0.0849
  898SSM    PO410952  25.563  20.949   7.365  0.0131 -0.1479  0.0274
  898SSM    OH110953  25.906  20.794   7.280 -0.2399 -0.2186 -0.2236
  898SSM    AM210954  25.855  20.889   6.993  0.0776  0.0602 -0.0840
  898SSM    T1A10955  25.956  20.483   7.132  0.1754  0.0574 -0.0702
  898SSM    C2A10956  26.008  20.335   6.806  0.2874 -0.1642 -0.5557
  898SSM    C3A10957  26.014  20.365   6.313 -0.0164  0.1251 -0.0514
  898SSM    C4A10958  25.876  20.260   5.857  0.0121  0.2520  0.2143
  898SSM    C1B10959  25.644  20.746   6.782 -0.3105 -0.1447  0.1083
  898SSM    C2B10960  25.545  20.639   6.240 -0.1064  0.1529 -0.2974
  898SSM    C3B10961  25.372  20.387   5.832  0.1321  0.0705 -0.1306
  898SSM    C4B10962  25.342  20.060   5.524 -0.0587 -0.2344  0.1608
  899SSM    NC310963  21.442  20.294   7.604 -0.1175  0.2264  0.1096
  899SSM    PO410964  21.024  20.278   7.621  0.3226  0.0728  0.0491
  899SSM    OH110965  20.913  20.070   7.279  0.0267 -0.0517  0.0823
  899SSM    AM210966  20.920  20.322   7.130 -0.1086  0.0186 -0.1252
  899SSM    T1A10967  20.720  19.914   7.023 -0.1149  0.2424  0.1383
  899SSM    C2A10968  20.656  19.872   6.645 -0.0280 -0.1996 -0.1069
  899SSM    C3A10969  20.793  20.194   6.326  0.1579  0.3205 -0.1953
  899SSM    C4A10970  21.006  20.372   5.885 -0.2302  0.0559  0.2424
  899SSM    C1B10971  20.870  20.533   6.747  0.2641  0.1976 -0.0870
  899SSM    C2B10972  20.988  20.716   6.334 -0.0137  0.2032  0.2819
  899SSM    C3B10973  21.214  20.791   5.860 -0.0541 -0.2685  0.0748
  899SSM    C4B10974  21.316  20.875   5.373  0.0415 -0.0402  0.1214
  900SSM    NC310975   0.845   0.708   7.448 -0.0574  0.3367 -0.1316
  900SSM    PO410976   1.144   0.857   7.719  0.1917  0.0753 -0.4781
  900SSM    OH110977   1.458   0.635   7.567 -0.2851 -0.0098  0.3170
  900SSM    AM210978   1.365   0.728   7.296  0.1010  0.1203  0.0713
  900SSM    T1A10979   1.708   0.523   7.384 -0.1691 -0.2068  0.0444
  900SSM    C2A10980   1.951   0.416   7.084 -0.2413 -0.1638  0.4186
  900SSM    C3A10981   1.766   0.283   6.740  0.2331  0.4034  0.1598
  900SSM    C4A10982   1.571  -0.065   6.409 -0.1998  0.0138 -0.0818
  900SSM    C1B10983   1.510   0.666   6.919 -0.0957 -0.0328  0.1023
  900SSM    C2B10984   1.537   0.762   6.450  0.1129  0.1069  0.1150
  900SSM    C3B10985   1.637   0.736   5.971 -0.1898 -0.1502 -0.1806
  900SSM    C4B10986   1.928   0.842   5.629  0.3737  0.1110 -0.1583
  901SSM    NC310987  20.893  26.276   8.076  0.1069 -0.0704 -0.1078
  901SSM    PO410988  20.983  26.500   7.712 -0.3154 -0.0885  0.3508
  901SSM    OH110989  20.651  26.513   7.529 -0.0411 -0.3425  0.2749
  901SSM    AM210990  20.714  26.286   7.338  0.2817  0.1118  0.2218
  901SSM    T1A10991  20.651  26.732   7.249 -0.2520  0.2368 -0.0492
  901SSM    C2A10992  20.468  26.862   6.865 -0.1853  0.0719 -0.1194
  901SSM    C3A10993  20.441  26.967   6.465 -0.3930 -0.2704  0.1646
  901SSM    C4A10994  20.203  27.062   6.090  0.2237  0.1788  0.0020
  901SSM    C1B10995  20.712  26.038   6.946 -0.2923 -0.0338 -0.1318
  901SSM    C2B10996  20.617  25.944   6.500  0.2256  0.1193 -0.0465
  901SSM    C3B10997  20.704  25.954   6.045 -0.1090  0.0648  0.0193
  901SSM    C4B10998  20.678  25.839   5.614 -0.2096  0.0686 -0.1467
  902SSM    NC310999   9.569   7.317   7.876  0.1749 -0.4278  0.2949
  902SSM    PO411000   9.598   7.220   7.473  0.0579  0.2872 -0.1985
  902SSM    OH111001   9.849   7.130   7.195  0.1485  0.2699  0.1860
  902SSM    AM211002   9.766   7.397   7.058  0.2969 -0.0105 -0.0620
  902SSM    T1A11003   9.980   7.045   6.874  0.2641  0.0558  0.3170
  902SSM    C2A11004  10.067   7.231   6.548 -0.1876  0.3397  0.0078
  902SSM    C3A11005  10.121   7.326   6.049 -0.0314  0.1011 -0.0160
  902SSM    C4A11006  10.059   7.325   5.545 -0.0545 -0.3551  0.0104
  902SSM    C1B11007   9.644   7.536   6.721  0.1982  0.1100 -0.2499
  902SSM    C2B11008   9.758   7.733   6.267 -0.1659  0.0936 -0.1068
  902SSM    C3B11009   9.863   7.827   5.798 -0.0130 -0.0300  0.1361
  902SSM    C4B11010   9.938   7.806   5.279  0.1972 -0.0687 -0.0735
  903SSM    NC311011  22.849  13.740   7.754  0.0558  0.0062  0.1301
  903SSM    PO411012  22.583  13.418   7.712  0.2252 -0.0965  0.0724
  903SSM    OH111013  22.667  13.453   7.367 -0.2650  0.0530 -0.4834
  903SSM    AM211014  22.941  13.332   7.390  0.0067 -0.0166 -0.2689
  903SSM    T1A11015  22.632  13.376   7.058  0.2792  0.3418  0.1480
  903SSM    C2A11016  22.503  13.344   6.701  0.3462  0.2836 -0.1778
  903SSM    C3A11017  22.253  13.395   6.288 -0.0596 -0.0708 -0.0907
  903SSM    C4A11018  22.192  13.436   5.798  0.0603 -0.0931  0.0679
  903SSM    C1B11019  23.270  13.257   7.155  0.1291 -0.0073  0.2030
  903SSM    C2B11020  23.627  13.155   6.878  0.1522 -0.0460  0.0375
  903SSM    C3B11021  24.087  13.017   6.823 -0.0719  0.3636 -0.1168
  903SSM    C4B11022  24.365  12.583   6.848  0.2235  0.0793 -0.0009
  904SSM    NC311023   9.905  11.488   7.513 -0.0971 -0.1182 -0.1429
  904SSM    PO411024   9.841  11.814   7.752  0.2280 -0.2113 -0.0664
  904SSM    OH111025   9.945  12.088   7.501  0.1523 -0.1226  0.0393
  904SSM    AM211026   9.711  11.996   7.349 -0.0455 -0.4387  0.1632
  904SSM    T1A11027  10.035  12.244   7.208 -0.0029 -0.1403  0.4905
  904SSM    C2A11028  10.262  12.114   6.920 -0.3876 -0.2925  0.2827
  904SSM    C3A11029  10.359  12.143   6.458  0.3727 -0.1889 -0.1170
  904SSM    C4A11030  10.429  12.271   6.024 -0.0783  0.0598  0.2029
  904SSM    C1B11031   9.625  12.224   7.027  0.0615  0.1724  0.2130
  904SSM    C2B11032   9.830  12.328   6.532  0.1370 -0.1215 -0.0112
  904SSM    C3B11033   9.957  12.382   6.072  0.1696  0.0047 -0.3130
  904SSM    C4B11034  10.082  12.196   5.657 -0.0178  0.1524 -0.0094
  905SSM    NC311035  13.726  21.556   7.884  0.2648 -0.1536  0.0833
  905SSM    PO411036  14.071  21.748   7.768  0.2807  0.0168 -0.0490
  905SSM    OH111037  14.080  21.794   7.388  0.1197  0.0720  0.2333
  905SSM    AM211038  13.851  21.606   7.355 -0.0369 -0.1392  0.1094
  905SSM    T1A11039  14.071  21.761   7.065  0.2684 -0.5153 -0.0314
  905SSM    C2A11040  13.991  21.636   6.680  0.2437  0.1365  0.2071
  905SSM    C3A11041  13.971  21.586   6.186 -0.1240  0.3996  0.1401
  905SSM    C4A11042  14.240  21.556   5.807 -0.0929  0.0037  0.3357
  905SSM    C1B11043  13.533  21.647   7.070  0.1147  0.2512 -0.0122
  905SSM    C2B11044  13.538  21.457   6.637  0.1363  0.2474  0.1321
  905SSM    C3B11045  13.487  21.459   6.197 -0.1965 -0.0909  0.1909
  905SSM    C4B11046  13.429  21.270   5.805 -0.1362 -0.1379 -0.0746
  906SSM    NC311047  25.109   0.831   7.874  0.0602 -0.1147  0.1437
  906SSM    PO411048  24.864   0.532   7.888  0.1765  0.0019  0.1250
  906SSM    OH111049  24.733   0.543   7.485 -0.1349 -0.1652  0.1766
  906SSM    AM211050  25.029   0.580   7.428  0.0490  0.3307  0.1223
  906SSM    T1A11051  24.715   0.411   7.164 -0.0265 -0.2273 -0.2677
  906SSM    C2A11052  24.684   0.285   6.800 -0.2713  0.2582  0.3765
  906SSM    C3A11053  24.811   0.309   6.355  0.3780 -0.0449  0.2197
  906SSM    C4A11054  24.745   0.245   5.852 -0.0811  0.0066  0.4111
  906SSM    C1B11055  25.225   0.517   7.081 -0.1052 -0.0232  0.0868
  906SSM    C2B11056  25.298   0.534   6.588 -0.0179  0.2166  0.0821
  906SSM    C3B11057  25.309   0.394   6.128  0.1661  0.1449 -0.0115
  906SSM    C4B11058  25.383   0.348   5.697 -0.0897  0.1055  0.0899
  907SSM    NC311059  14.035   6.312   7.313 -0.0559  0.1883 -0.1472
  907SSM    PO411060  14.024   5.986   7.570 -0.1150  0.0408  0.0686
  907SSM    OH111061  13.760   5.855   7.337 -0.0009 -0.1050 -0.0621
  907SSM    AM211062  13.702   6.102   7.181  0.2221  0.0592 -0.0084
  907SSM    T1A11063  13.494   5.695   7.213 -0.5108 -0.0216 -0.5450
  907SSM    C2A11064  13.270   5.950   6.916  0.2873  0.1685  0.0907
  907SSM    C3A11065  13.241   6.146   6.477 -0.1360 -0.0287 -0.1625
  907SSM    C4A11066  13.351   6.456   6.107 -0.0252  0.3736 -0.0341
  907SSM    C1B11067  13.720   6.116   6.793  0.0439 -0.2466 -0.3748
  907SSM    C2B11068  13.762   6.153   6.248 -0.0581  0.4809 -0.1379
  907SSM    C3B11069  13.751   6.073   5.746 -0.0330  0.1716  0.1757
  907SSM    C4B11070  13.814   6.054   5.320  0.0608 -0.0117  0.0539
  908SSM    NC311071   5.888   5.205   7.458 -0.1385  0.1682  0.1529
  908SSM    PO411072   5.711   4.863   7.618  0.2663  0.0463  0.1748
  908SSM    OH111073   5.685   4.595   7.321 -0.1738  0.1147 -0.0312
  908SSM    AM211074   5.507   4.756   7.152  0.0251  0.3374 -0.3797
  908SSM    T1A11075   5.802   4.445   7.042  0.0718  0.1642  0.0241
  908SSM    C2A11076   5.975   4.324   6.704 -0.0091 -0.1050  0.2682
  908SSM    C3A11077   5.878   4.306   6.239  0.0314 -0.1228 -0.2629
  908SSM    C4A11078   5.909   4.293   5.789 -0.0461  0.0822 -0.1224
  908SSM    C1B11079   5.358   4.812   6.855 -0.2648 -0.3941  0.1136
  908SSM    C2B11080   5.245   4.828   6.331  0.2650 -0.0464  0.0287
  908SSM    C3B11081   5.062   4.888   5.938  0.0195  0.3336  0.2016
  908SSM    C4B11082   4.742   4.875   5.545 -0.1947  0.1958  0.0058
  909SSM    NC311083  22.121  15.625   7.284  0.2358  0.0028 -0.3467
  909SSM    PO411084  22.093  16.008   7.243  0.2811  0.0528 -0.0273
  909SSM    OH111085  21.930  16.097   6.946 -0.0381 -0.0931  0.4068
  909SSM    AM211086  22.065  15.913   6.764  0.0217 -0.2907  0.4203
  909SSM    T1A11087  21.727  16.232   6.695  0.6559 -0.2216 -0.0386
  909SSM    C2A11088  21.904  16.312   6.387 -0.0611 -0.1918  0.1013
  909SSM    C3A11089  21.919  16.388   5.897  0.3107 -0.1020  0.1443
  909SSM    C4A11090  21.798  16.665   5.478 -0.0373  0.0836  0.1079
  909SSM    C1B11091  22.280  15.943   6.470  0.0716 -0.0123 -0.3249
  909SSM    C2B11092  22.562  15.865   6.076  0.2256  0.1799  0.0446
  909SSM    C3B11093  22.871  15.773   5.720  0.1094 -0.0832 -0.1607
  909SSM    C4B11094  22.748  15.774   5.271  0.3421 -0.1294 -0.4165
  910SSM    NC311095   5.542  25.489   8.045  0.0308  0.1370  0.0181
  910SSM    PO411096   5.808  25.190   8.107  0.2133 -0.1489 -0.0444
  910SSM    OH111097   6.038  25.359   7.880 -0.1171 -0.3383 -0.5603
  910SSM    AM211098   5.828  25.377   7.694  0.1947 -0.0650  0.0833
  910SSM    T1A11099   6.259  25.325   7.617  0.3287 -0.0526  0.0448
  910SSM    C2A11100   6.219  25.193   7.195  0.3409 -0.0013 -0.2555
  910SSM    C3A11101   6.120  25.299   6.758 -0.1600 -0.2023 -0.1916
  910SSM    C4A11102   6.185  25.709   6.552 -0.1343 -0.1463 -0.3681
  910SSM    C1B11103   5.658  25.231   7.308  0.1751 -0.1362 -0.0499
  910SSM    C2B11104   5.554  25.337   6.781 -0.1980 -0.1509 -0.0841
  910SSM    C3B11105   5.744  25.455   6.387  0.1348 -0.0617 -0.0982
  910SSM    C4B11106   6.047  25.437   6.011 -0.1618 -0.4750 -0.0565
  911SSM    NC311107   7.763  20.188   8.032 -0.3477  0.0292  0.2763
  911SSM    PO411108   7.591  20.529   8.145  0.0089 -0.0354 -0.1940
  911SSM    OH111109   7.550  20.757   7.857 -0.0157  0.2939  0.4964
  911SSM    AM211110   7.668  20.540   7.667  0.0248 -0.2937  0.1400
  911SSM    T1A11111   7.462  20.867   7.547 -0.2497 -0.1012 -0.1240
  911SSM    C2A11112   7.405  21.028   7.159 -0.0983 -0.3141 -0.1805
  911SSM    C3A11113   7.395  21.120   6.677 -0.2637 -0.1324  0.0953
  911SSM    C4A11114   7.374  21.146   6.162 -0.2489 -0.1637  0.4578
  911SSM    C1B11115   7.661  20.557   7.296  0.2585  0.2233 -0.0774
  911SSM    C2B11116   7.489  20.696   6.826 -0.0945  0.0446  0.1025
  911SSM    C3B11117   7.533  20.720   6.339  0.0844 -0.3197  0.0162
  911SSM    C4B11118   7.485  20.716   5.872  0.3650  0.2990 -0.1201
  912SSM    NC311119   9.150   3.950   7.482 -0.2337  0.1466 -0.3060
  912SSM    PO411120   8.815   3.732   7.529  0.1718 -0.2514 -0.3544
  912SSM    OH111121   8.781   3.495   7.254  0.3001 -0.3070 -0.0698
  912SSM    AM211122   8.473   3.501   7.221  0.0376  0.2344  0.0839
  912SSM    T1A11123   8.826   3.280   7.007  0.1057 -0.0411  0.1626
  912SSM    C2A11124   8.533   3.230   6.694  0.1137 -0.3987  0.1759
  912SSM    C3A11125   8.544   3.120   6.215 -0.0274  0.1688  0.3444
  912SSM    C4A11126   8.747   3.105   5.772 -0.1182  0.0930 -0.0754
  912SSM    C1B11127   8.130   3.735   7.090  0.2685 -0.0790 -0.2434
  912SSM    C2B11128   7.948   3.890   6.626 -0.2465 -0.2631 -0.0817
  912SSM    C3B11129   7.880   3.760   6.217 -0.0277  0.0463  0.0227
  912SSM    C4B11130   7.810   3.787   5.762 -0.1559 -0.0996  0.0016
  913SSM    NC311131   9.870  24.908   7.610 -0.1410 -0.0420 -0.1095
  913SSM    PO411132  10.241  24.717   7.652 -0.0844  0.1326  0.3388
  913SSM    OH111133  10.325  24.492   7.381 -0.0854 -0.2597  0.0146
  913SSM    AM211134  10.049  24.384   7.332 -0.0410  0.0826  0.1018
  913SSM    T1A11135  10.404  24.360   7.107 -0.1285 -0.0004  0.5794
  913SSM    C2A11136  10.574  24.382   6.740 -0.0500  0.3490  0.0828
  913SSM    C3A11137  10.870  24.453   6.328 -0.1979  0.0274 -0.2447
  913SSM    C4A11138  10.787  24.619   5.845 -0.0850 -0.0820  0.1885
  913SSM    C1B11139   9.923  24.121   7.002 -0.1941  0.0426  0.0434
  913SSM    C2B11140   9.908  23.723   6.591 -0.0531  0.2441 -0.1112
  913SSM    C3B11141   9.846  23.383   6.249 -0.0984  0.0268  0.0206
  913SSM    C4B11142   9.844  23.242   5.774 -0.1638 -0.1600 -0.0916
  914SSM    NC311143   7.499  19.444   7.989 -0.2696  0.0383  0.0717
  914SSM    PO411144   7.463  19.830   7.849  0.0992 -0.0828  0.1129
  914SSM    OH111145   7.601  19.719   7.511 -0.4702 -0.2520 -0.0887
  914SSM    AM211146   7.321  19.621   7.424 -0.2262  0.1442 -0.0064
  914SSM    T1A11147   7.713  19.663   7.191 -0.2594 -0.1744  0.2244
  914SSM    C2A11148   7.700  19.578   6.786  0.3784  0.0367  0.0435
  914SSM    C3A11149   7.571  19.661   6.330 -0.3045 -0.3042 -0.1374
  914SSM    C4A11150   7.583  19.808   5.824 -0.1610 -0.1386 -0.2298
  914SSM    C1B11151   7.214  19.530   7.052 -0.2242 -0.0747  0.1993
  914SSM    C2B11152   7.136  19.591   6.547 -0.2084  0.2040  0.0770
  914SSM    C3B11153   7.096  19.680   6.102  0.1676 -0.2329  0.1535
  914SSM    C4B11154   7.197  19.522   5.654 -0.2617  0.3739  0.1538
  915SSM    NC311155  17.275  27.077   7.836  0.0203  0.0860  0.2049
  915SSM    PO411156  17.010  27.169   8.100 -0.1136  0.1069  0.1229
  915SSM    OH111157  16.871  27.342   7.782 -0.0142 -0.0381 -0.0925
  915SSM    AM211158  16.810  27.049   7.678  0.3017 -0.4569  0.3080
  915SSM    T1A11159  16.901  27.441   7.471 -0.0584 -0.4023 -0.0692
  915SSM    C2A11160  16.890  27.340   7.060 -0.3700  0.0638 -0.2827
  915SSM    C3A11161  16.648  27.129   6.705  0.0529 -0.1263 -0.1220
  915SSM    C4A11162  16.368  27.151   6.260 -0.4126 -0.1948  0.0745
  915SSM    C1B11163  16.783  26.891   7.336 -0.0020  0.0472 -0.0292
  915SSM    C2B11164  17.046  26.860   6.858  0.2480 -0.5553  0.0906
  915SSM    C3B11165  17.016  26.904   6.402 -0.0074  0.1026  0.0265
  915SSM    C4B11166  16.808  27.362   6.284 -0.2116  0.1911  0.0779
  916SSM    NC311167   1.505   9.211   8.383 -0.1189  0.3936  0.1946
  916SSM    PO411168   1.138   9.275   8.233 -0.0185 -0.1076 -0.0217
  916SSM    OH111169   1.056   9.316   7.889  0.0338  0.1669 -0.5619
  916SSM    AM211170   0.898   9.071   7.835  0.0833  0.3568 -0.0181
  916SSM    T1A11171   1.172   9.239   7.596 -0.2613 -0.1849 -0.0959
  916SSM    C2A11172   1.246   9.277   7.219 -0.2087  0.0764  0.0676
  916SSM    C3A11173   1.004   9.190   6.787  0.0043 -0.5203  0.0168
  916SSM    C4A11174   0.856   9.437   6.319 -0.2068 -0.2031 -0.0730
  916SSM    C1B11175   0.958   8.893   7.517 -0.2315  0.1208 -0.1382
  916SSM    C2B11176   0.862   8.749   7.001 -0.0359 -0.1254  0.3378
  916SSM    C3B11177   0.948   8.644   6.546  0.0581 -0.1308 -0.2290
  916SSM    C4B11178   1.066   8.310   6.227  0.1942 -0.0563 -0.0124
  917SSM    NC311179  11.223   2.173   8.000 -0.1938 -0.0004 -0.0042
  917SSM    PO411180  11.164   2.279   7.602  0.1890 -0.1943  0.0807
  917SSM    OH111181  11.434   2.130   7.409 -0.1545  0.1215  0.0686
  917SSM    AM211182  11.479   2.372   7.270  0.3314 -0.2300  0.1499
  917SSM    T1A11183  11.717   2.005   7.263 -0.2016  0.0987  0.0495
  917SSM    C2A11184  11.831   1.914   6.896  0.0759  0.1291 -0.1471
  917SSM    C3A11185  11.908   1.693   6.508 -0.0872  0.0082 -0.0371
  917SSM    C4A11186  11.730   1.675   6.012 -0.3436  0.0760 -0.0520
  917SSM    C1B11187  11.421   2.536   6.925  0.3224  0.3770 -0.3180
  917SSM    C2B11188  11.424   2.547   6.455  0.2232  0.2964  0.1414
  917SSM    C3B11189  11.479   2.615   6.005  0.2752 -0.1383 -0.0242
  917SSM    C4B11190  11.655   2.692   5.627 -0.0896  0.2961 -0.1141
  918SSM    NC311191  17.389  10.590   7.259 -0.2093  0.0186  0.1331
  918SSM    PO411192  17.167  10.875   7.468  0.2668  0.0336 -0.0536
  918SSM    OH111193  17.018  11.076   7.136  0.2665 -0.1221 -0.1700
  918SSM    AM211194  17.270  10.980   7.005 -0.1134 -0.2309  0.0684
  918SSM    T1A11195  16.941  11.044   6.792  0.0643  0.0961 -0.0245
  918SSM    C2A11196  16.951  10.928   6.402  0.0163  0.0077 -0.2726
  918SSM    C3A11197  16.641  10.722   6.147  0.0965  0.3009 -0.2011
  918SSM    C4A11198  16.218  10.668   6.193  0.1077  0.1616  0.0162
  918SSM    C1B11199  17.430  10.863   6.710  0.0763 -0.2491 -0.0098
  918SSM    C2B11200  17.695  10.576   6.364  0.0191  0.1088  0.3761
  918SSM    C3B11201  17.682  10.276   5.967  0.1477 -0.5717  0.2282
  918SSM    C4B11202  17.416   9.898   5.751  0.0181  0.2197  0.2200
  919SSM    NC311203   9.261  16.922   7.759 -0.1414  0.2994  0.4162
  919SSM    PO411204   9.165  16.952   7.362  0.1789 -0.1767  0.0664
  919SSM    OH111205   9.115  16.654   7.165  0.1200  0.0484 -0.1630
  919SSM    AM211206   9.399  16.623   7.128 -0.1929 -0.1267 -0.1600
  919SSM    T1A11207   9.077  16.492   6.855 -0.0632 -0.2660  0.1628
  919SSM    C2A11208   9.065  16.548   6.461 -0.0887 -0.1140  0.0085
  919SSM    C3A11209   9.296  16.617   6.074 -0.0355 -0.2525  0.3554
  919SSM    C4A11210   9.290  16.710   5.615  0.0645  0.2474  0.3032
  919SSM    C1B11211   9.636  16.620   6.770  0.0252 -0.0954 -0.2351
  919SSM    C2B11212   9.729  16.601   6.321  0.0812 -0.0101  0.0451
  919SSM    C3B11213   9.919  16.552   5.857  0.1986 -0.0734 -0.1713
  919SSM    C4B11214  10.009  16.359   5.399  0.2258 -0.1725 -0.0241
  920SSM    NC311215  12.732  14.566   8.272  0.0162  0.0202 -0.1945
  920SSM    PO411216  12.592  14.743   7.954  0.1015 -0.1118  0.2945
  920SSM    OH111217  12.776  14.848   7.675 -0.2963 -0.0966 -0.3989
  920SSM    AM211218  12.833  14.568   7.571  0.1611 -0.1697  0.0907
  920SSM    T1A11219  12.958  14.993   7.403  0.0891  0.1429 -0.1178
  920SSM    C2A11220  12.989  14.870   7.030 -0.2564 -0.0985 -0.1862
  920SSM    C3A11221  13.008  14.778   6.573 -0.0417 -0.1303  0.1282
  920SSM    C4A11222  13.136  14.784   6.074  0.0165  0.0438  0.1967
  920SSM    C1B11223  12.807  14.425   7.200  0.1664  0.0483 -0.1314
  920SSM    C2B11224  12.765  14.267   6.738  0.1044  0.0046 -0.1988
  920SSM    C3B11225  12.781  14.417   6.236 -0.1135 -0.1922 -0.0003
  920SSM    C4B11226  12.415  14.552   5.895  0.1210  0.0546  0.0277
  921SSM    NC311227  21.598  26.017   7.534  0.0352 -0.0353  0.0192
  921SSM    PO411228  21.944  25.927   7.441 -0.1054 -0.2947 -0.2426
  921SSM    OH111229  21.891  26.015   7.080 -0.3455  0.1007 -0.2081
  921SSM    AM211230  21.687  25.804   7.045 -0.1580  0.2970 -0.2612
  921SSM    T1A11231  21.846  26.144   6.760 -0.1019  0.0188 -0.0732
  921SSM    C2A11232  21.738  26.017   6.421 -0.1921 -0.0185  0.2758
  921SSM    C3A11233  21.685  25.782   5.967 -0.0633  0.3253 -0.1345
  921SSM    C4A11234  21.602  25.830   5.471  0.2364 -0.0673 -0.1386
  921SSM    C1B11235  21.636  25.560   6.773 -0.2396 -0.3155 -0.1247
  921SSM    C2B11236  21.572  25.407   6.302 -0.0815 -0.2606  0.2107
  921SSM    C3B11237  21.559  25.331   5.839  0.1099 -0.1531  0.1238
  921SSM    C4B11238  21.479  25.367   5.297  0.2669 -0.4127 -0.4533
  922SSM    NC311239   2.141   0.571   8.256 -0.4033  0.0891 -0.0616
  922SSM    PO411240   2.262   0.817   7.969  0.1201  0.1169  0.2794
  922SSM    OH111241   2.455   0.869   7.619 -0.1338 -0.3123 -0.0045
  922SSM    AM211242   2.182   0.936   7.524  0.0802  0.1519  0.2648
  922SSM    T1A11243   2.618   0.723   7.353  0.1563 -0.0882  0.0953
  922SSM    C2A11244   2.577   0.548   6.974 -0.0836 -0.1745  0.2086
  922SSM    C3A11245   2.273   0.319   6.660  0.1837  0.0391  0.0654
  922SSM    C4A11246   1.913   0.358   6.289 -0.1372  0.1067  0.2975
  922SSM    C1B11247   2.013   0.892   7.175  0.0791 -0.1107  0.2053
  922SSM    C2B11248   1.956   0.767   6.682  0.2114 -0.0248  0.2015
  922SSM    C3B11249   2.072   0.925   6.247  0.2614  0.0493  0.5045
  922SSM    C4B11250   2.360   0.820   5.880  0.1555  0.1656 -0.1343
  923SSM    NC311251  11.890  12.366   7.515  0.0199  0.1204 -0.2731
  923SSM    PO411252  12.126  12.691   7.500  0.2068  0.2723 -0.1568
  923SSM    OH111253  12.467  12.767   7.374  0.0217 -0.1205  0.0434
  923SSM    AM211254  12.360  12.847   7.091  0.5198 -0.0710  0.4559
  923SSM    T1A11255  12.777  12.855   7.213  0.1851  0.2689 -0.1213
  923SSM    C2A11256  12.918  12.943   6.838  0.2487 -0.0485 -0.3265
  923SSM    C3A11257  12.777  13.047   6.381 -0.0893 -0.2295  0.0782
  923SSM    C4A11258  12.909  13.209   5.971  0.1266  0.0839 -0.2190
  923SSM    C1B11259  12.394  12.809   6.646 -0.3155  0.0316 -0.2073
  923SSM    C2B11260  12.436  12.846   6.110 -0.2883  0.4104 -0.0993
  923SSM    C3B11261  12.510  12.991   5.668 -0.2105  0.2966 -0.0752
  923SSM    C4B11262  12.305  13.442   5.534  0.1109  0.0467 -0.0680
  924SSM    NC311263  10.858   8.349   7.708  0.1499  0.0068  0.0248
  924SSM    PO411264  11.221   8.368   7.843  0.2223  0.0832 -0.1120
  924SSM    OH111265  11.295   8.315   7.458  0.0227  0.0494  0.0607
  924SSM    AM211266  11.257   8.606   7.438 -0.0647 -0.0492  0.1434
  924SSM    T1A11267  11.315   8.292   7.114  0.0303 -0.1344 -0.1272
  924SSM    C2A11268  11.231   8.209   6.754  0.0258  0.1810  0.3356
  924SSM    C3A11269  11.416   8.188   6.313  0.0137  0.0048  0.1571
  924SSM    C4A11270  11.671   8.052   5.901 -0.1816 -0.0977  0.0598
  924SSM    C1B11271  11.477   8.842   7.176  0.0836 -0.0324 -0.0295
  924SSM    C2B11272  11.482   8.985   6.677 -0.0746 -0.1140  0.0515
  924SSM    C3B11273  11.637   9.004   6.187 -0.2500 -0.0437  0.0578
  924SSM    C4B11274  11.379   9.261   5.901  0.0415  0.3366 -0.0820
  925SSM    NC311275  27.103  17.520   7.967  0.3557 -0.1053 -0.2334
  925SSM    PO411276  27.194  17.812   7.705  0.3859 -0.4996  0.2474
  925SSM    OH111277  27.331  17.939   7.383 -0.1834  0.4406 -0.4045
  925SSM    AM211278  27.152  17.761   7.245  0.2341  0.1366 -0.0721
  925SSM    T1A11279  27.333  18.121   7.109 -0.1444  0.0173 -0.0689
  925SSM    C2A11280  27.486  18.304   6.804  0.3749  0.3326 -0.2396
  925SSM    C3A11281  27.904  18.519   6.540  0.3670 -0.0571  0.1059
  925SSM    C4A11282  28.168  18.856   6.724 -0.3193  0.4690  0.1413
  925SSM    C1B11283  27.148  17.775   6.876  0.2519 -0.1157 -0.1223
  925SSM    C2B11284  27.044  17.885   6.382 -0.0072 -0.1391  0.1170
  925SSM    C3B11285  26.886  18.150   5.982  0.2000 -0.0013  0.1090
  925SSM    C4B11286  26.837  18.420   5.579 -0.3037  0.1152 -0.0792
  926SSM    NC311287   6.476  12.698   7.666  0.1375 -0.0207  0.0188
  926SSM    PO411288   6.209  12.799   7.441 -0.0976 -0.1679  0.0379
  926SSM    OH111289   6.101  12.768   7.080  0.1939 -0.3410 -0.0968
  926SSM    AM211290   6.330  12.967   7.009  0.0802  0.0482 -0.4554
  926SSM    T1A11291   6.033  12.755   6.749 -0.0345 -0.4855  0.1999
  926SSM    C2A11292   6.099  12.764   6.368  0.0325 -0.0279 -0.0166
  926SSM    C3A11293   6.051  12.672   5.892  0.0851 -0.0560 -0.2224
  926SSM    C4A11294   6.153  12.928   5.511  0.1137  0.1722 -0.4357
  926SSM    C1B11295   6.517  13.071   6.658  0.0675  0.1893 -0.1625
  926SSM    C2B11296   6.430  13.166   6.178 -0.0743 -0.0612  0.1309
  926SSM    C3B11297   6.545  13.204   5.737  0.2255 -0.3306 -0.1765
  926SSM    C4B11298   6.668  13.251   5.302  0.0798 -0.0155  0.3130
  927SSM    NC311299  19.902  14.503   7.552  0.0711  0.2474 -0.5768
  927SSM    PO411300  20.180  14.634   7.311  0.0338  0.2029 -0.0235
  927SSM    OH111301  20.193  14.320   7.154 -0.0849 -0.0616  0.0852
  927SSM    AM211302  19.982  14.335   6.931 -0.0762  0.1020 -0.1329
  927SSM    T1A11303  20.250  14.007   6.995  0.1536  0.1486 -0.0387
  927SSM    C2A11304  20.273  13.863   6.591  0.3098  0.0311 -0.1400
  927SSM    C3A11305  20.373  13.823   6.120  0.0617 -0.0304 -0.3445
  927SSM    C4A11306  20.260  13.554   5.698 -0.0704  0.1980 -0.0727
  927SSM    C1B11307  19.888  14.507   6.633 -0.1289 -0.0666 -0.1510
  927SSM    C2B11308  19.673  14.796   6.242 -0.1631  0.1695 -0.2170
  927SSM    C3B11309  19.849  14.968   5.829  0.1803  0.3566 -0.0418
  927SSM    C4B11310  20.192  15.079   5.440  0.1189  0.2981 -0.0218
  928SSM    NC311311   8.354  18.998   8.216  0.6409  0.2192 -0.0292
  928SSM    PO411312   8.303  19.273   7.940  0.2482 -0.0894 -0.2235
  928SSM    OH111313   8.324  19.286   7.592 -0.0501 -0.0736 -0.1836
  928SSM    AM211314   8.316  19.586   7.611 -0.2081  0.2929 -0.1730
  928SSM    T1A11315   8.370  19.334   7.226  0.1560 -0.3458  0.0444
  928SSM    C2A11316   8.375  19.262   6.867 -0.1099  0.4395  0.1573
  928SSM    C3A11317   8.255  19.049   6.456  0.0361 -0.0674 -0.1183
  928SSM    C4A11318   8.155  19.158   5.929  0.3987 -0.0203  0.1542
  928SSM    C1B11319   8.170  19.819   7.383 -0.1950  0.0305 -0.2333
  928SSM    C2B11320   7.969  19.980   6.944  0.2038  0.0853  0.0767
  928SSM    C3B11321   7.992  20.013   6.456  0.0296 -0.0736 -0.0723
  928SSM    C4B11322   8.047  19.825   5.994 -0.1717  0.2184  0.0373
  929SSM    NC311323  12.885  21.056   7.550  0.0142  0.2967  0.0015
  929SSM    PO411324  12.844  20.637   7.601 -0.2669  0.0473 -0.0044
  929SSM    OH111325  12.983  20.686   7.244  0.0730 -0.5213  0.0035
  929SSM    AM211326  12.771  20.495   7.122  0.2799  0.0982  0.3262
  929SSM    T1A11327  13.028  20.837   6.929  0.4233  0.3400 -0.0439
  929SSM    C2A11328  12.841  20.914   6.633 -0.0376 -0.0429  0.1806
  929SSM    C3A11329  12.572  20.992   6.234 -0.3909  0.0508  0.0012
  929SSM    C4A11330  12.359  20.940   5.760  0.2050  0.2186 -0.2337
  929SSM    C1B11331  12.680  20.375   6.781 -0.1092 -0.0022 -0.2258
  929SSM    C2B11332  12.548  20.114   6.400  0.3828  0.1626  0.0535
  929SSM    C3B11333  12.719  19.996   5.967  0.1963  0.1923  0.0564
  929SSM    C4B11334  13.017  19.825   5.547  0.3900 -0.0654 -0.0746
  930SSM    NC311335  11.311  10.040   8.049 -0.3899  0.3231  0.1521
  930SSM    PO411336  11.003  10.190   7.872 -0.1262 -0.0351 -0.0442
  930SSM    OH111337  11.149   9.975   7.611  0.3141  0.1134  0.0686
  930SSM    AM211338  11.406  10.128   7.585  0.1176  0.1635  0.3092
  930SSM    T1A11339  11.176  10.041   7.258 -0.1957  0.3310 -0.6998
  930SSM    C2A11340  11.229  10.070   6.884  0.0584  0.1661  0.0901
  930SSM    C3A11341  11.230   9.909   6.383  0.2989  0.1595 -0.0638
  930SSM    C4A11342  11.312   9.850   5.936 -0.1573  0.0383  0.0724
  930SSM    C1B11343  11.643  10.405   7.311 -0.1533 -0.5724 -0.2419
  930SSM    C2B11344  11.706  10.323   6.821 -0.3379 -0.1340 -0.3043
  930SSM    C3B11345  11.679  10.244   6.345 -0.0030 -0.2364  0.1133
  930SSM    C4B11346  11.752  10.032   5.813  0.2083  0.1353 -0.1176
  931SSM    NC311347  26.467  26.758   8.107 -0.1581  0.1945 -0.0737
  931SSM    PO411348  26.611  26.543   7.841  0.4682  0.1298 -0.0525
  931SSM    OH111349  26.850  26.631   7.593 -0.1874  0.1401 -0.0312
  931SSM    AM211350  26.863  26.374   7.444  0.2859  0.1083  0.0127
  931SSM    T1A11351  26.779  26.715   7.265  0.2172 -0.3194 -0.4487
  931SSM    C2A11352  26.931  26.562   6.934 -0.2791 -0.0118 -0.1966
  931SSM    C3A11353  27.076  26.551   6.478  0.0149  0.1711 -0.3294
  931SSM    C4A11354  27.092  26.709   6.007  0.2912 -0.2888  0.3870
  931SSM    C1B11355  27.074  26.031   7.300 -0.0557 -0.3223  0.1363
  931SSM    C2B11356  27.103  25.838   6.835  0.0280 -0.3274  0.0008
  931SSM    C3B11357  27.059  26.015   6.411 -0.1482  0.1205 -0.1622
  931SSM    C4B11358  27.063  26.209   5.993  0.1754 -0.2042 -0.2017
  932SSM    NC311359  17.795  21.873   7.571  0.0430  0.3968  0.1201
  932SSM    PO411360  17.463  22.073   7.543  0.4046 -0.0795  0.0783
  932SSM    OH111361  17.292  21.994   7.216  0.1531  0.0592 -0.0612
  932SSM    AM211362  17.350  22.266   7.090 -0.0923  0.4425  0.1493
  932SSM    T1A11363  17.100  21.899   6.950  0.0918  0.1051 -0.2235
  932SSM    C2A11364  17.097  21.994   6.548  0.4232  0.2027  0.2169
  932SSM    C3A11365  17.113  22.351   6.140 -0.2006  0.0016 -0.2780
  932SSM    C4A11366  17.219  22.633   5.784 -0.1402 -0.0495 -0.2741
  932SSM    C1B11367  17.261  22.542   6.814 -0.0840  0.6349  0.1000
  932SSM    C2B11368  17.205  22.763   6.373  0.0853  0.3288  0.1450
  932SSM    C3B11369  17.326  23.049   6.009  0.0586  0.1462 -0.0071
  932SSM    C4B11370  17.599  23.199   5.591  0.2028  0.0094  0.2127
  933SSM    NC311371  22.976  26.726   6.906 -0.1336 -0.0653  0.2410
  933SSM    PO411372  22.697  26.529   7.065  0.0305 -0.0167  0.0042
  933SSM    OH111373  22.628  26.458   6.759 -0.2732  0.0082 -0.0179
  933SSM    AM211374  22.501  26.185   6.801 -0.1585 -0.0369 -0.3188
  933SSM    T1A11375  22.532  26.537   6.422 -0.3298  0.0181  0.0635
  933SSM    C2A11376  22.694  26.520   6.008  0.0997  0.1469  0.0462
  933SSM    C3A11377  22.768  26.429   5.545 -0.2910 -0.1332 -0.1157
  933SSM    C4A11378  23.003  26.501   5.163  0.0962 -0.2850  0.0896
  933SSM    C1B11379  22.235  26.042   6.493 -0.0098 -0.4700  0.0157
  933SSM    C2B11380  22.121  25.924   5.987  0.0543 -0.2410  0.0765
  933SSM    C3B11381  22.092  25.796   5.510  0.0972 -0.0316  0.1908
  933SSM    C4B11382  22.043  25.606   5.068 -0.2237  0.1519 -0.1177
  934SSM    NC311383  12.348  17.538   8.133 -0.2860  0.0355 -0.0041
  934SSM    PO411384  12.263  17.688   7.789  0.0675 -0.4159 -0.0005
  934SSM    OH111385  12.330  17.716   7.445 -0.3155 -0.5596 -0.0707
  934SSM    AM211386  12.310  17.436   7.372  0.0933 -0.1079  0.2423
  934SSM    T1A11387  12.294  17.717   7.089  0.0199 -0.5151 -0.3286
  934SSM    C2A11388  12.364  17.780   6.715 -0.1982  0.0365 -0.2182
  934SSM    C3A11389  12.331  17.748   6.234 -0.0491 -0.0532 -0.4508
  934SSM    C4A11390  12.207  17.780   5.726 -0.0810 -0.0914 -0.1732
  934SSM    C1B11391  12.292  17.160   7.064  0.0787  0.1123  0.0158
  934SSM    C2B11392  12.256  17.169   6.546  0.0161  0.1365 -0.0795
  934SSM    C3B11393  12.271  17.168   5.998  0.2178 -0.2182  0.2052
  934SSM    C4B11394  11.998  17.345   5.608 -0.0103  0.1960  0.3931
  935SSM    NC311395   8.657  13.936   7.838 -0.2600 -0.1190 -0.0458
  935SSM    PO411396   9.020  13.754   7.812  0.1226 -0.1695 -0.2858
  935SSM    OH111397   8.963  13.490   7.539 -0.0858  0.1451 -0.0912
  935SSM    AM211398   8.910  13.696   7.336  0.2009 -0.6766 -0.1673
  935SSM    T1A11399   9.007  13.304   7.221 -0.1837 -0.1511  0.2618
  935SSM    C2A11400   9.063  13.177   6.824  0.3815  0.2348  0.0409
  935SSM    C3A11401   9.189  13.248   6.380  0.1092 -0.0011 -0.2625
  935SSM    C4A11402   9.318  13.148   5.905 -0.0476 -0.3513  0.1554
  935SSM    C1B11403   8.987  13.874   6.984 -0.2455 -0.3645  0.2403
  935SSM    C2B11404   8.853  13.928   6.489  0.0731  0.1732  0.5400
  935SSM    C3B11405   8.929  14.045   5.989  0.0669 -0.2049  0.1012
  935SSM    C4B11406   9.091  14.213   5.581  0.0241  0.0255 -0.0960
  936SSM    NC311407   2.435   8.878   7.671  0.1047  0.1155 -0.4321
  936SSM    PO411408   2.532   9.140   7.963  0.1022 -0.2038  0.1639
  936SSM    OH111409   2.345   9.334   7.658  0.4608  0.1312 -0.3085
  936SSM    AM211410   2.567   9.317   7.481  0.2125  0.1111  0.1196
  936SSM    T1A11411   2.127   9.470   7.406 -0.4231 -0.0752 -0.3808
  936SSM    C2A11412   2.184   9.441   6.983  0.2544  0.0676 -0.1860
  936SSM    C3A11413   2.185   9.514   6.498 -0.1845  0.0029 -0.3471
  936SSM    C4A11414   2.400   9.581   6.033 -0.2221  0.1193  0.0282
  936SSM    C1B11415   2.763   9.549   7.158 -0.0203  0.2905 -0.0949
  936SSM    C2B11416   2.939   9.662   6.694 -0.2919 -0.2361 -0.3539
  936SSM    C3B11417   2.881   9.599   6.211 -0.1457 -0.2640 -0.0355
  936SSM    C4B11418   2.830   9.393   5.796 -0.1133 -0.0690  0.1687
  937SSM    NC311419  26.790   9.824   8.011  0.1156 -0.0309  0.1445
  937SSM    PO411420  26.643   9.576   7.723  0.0779  0.0272 -0.2038
  937SSM    OH111421  26.692   9.669   7.393 -0.2836  0.1142 -0.2483
  937SSM    AM211422  26.863   9.424   7.310 -0.1420  0.4253  0.0133
  937SSM    T1A11423  26.684   9.804   7.082  0.3155 -0.1776  0.2132
  937SSM    C2A11424  26.722   9.799   6.647 -0.0553  0.1625 -0.0892
  937SSM    C3A11425  26.543   9.924   6.218 -0.0078  0.1061 -0.1667
  937SSM    C4A11426  26.245  10.013   5.866 -0.1824  0.2271 -0.1427
  937SSM    C1B11427  26.908   9.403   6.920 -0.2498  0.1441 -0.2141
  937SSM    C2B11428  27.030   9.487   6.411  0.0374 -0.1136  0.0844
  937SSM    C3B11429  27.207   9.554   6.001  0.2147 -0.1722 -0.0912
  937SSM    C4B11430  27.557   9.472   5.594 -0.1518 -0.1857 -0.1948
  938SSM    NC311431  11.378  25.320   7.385 -0.3078  0.2187  0.3459
  938SSM    PO411432  11.030  25.286   7.579 -0.1901 -0.0696  0.1785
  938SSM    OH111433  10.747  25.305   7.360 -0.0436 -0.0667  0.2007
  938SSM    AM211434  10.823  25.603   7.275  0.2241  0.0371  0.3713
  938SSM    T1A11435  10.514  25.279   7.125  0.0703  0.1454 -0.0530
  938SSM    C2A11436  10.501  25.513   6.871  0.0769 -0.0306 -0.1870
  938SSM    C3A11437  10.390  25.363   6.380  0.1342 -0.2047 -0.1233
  938SSM    C4A11438  10.309  25.347   5.881  0.0977 -0.0128  0.0431
  938SSM    C1B11439  11.021  25.842   7.038 -0.0236 -0.1511 -0.0131
  938SSM    C2B11440  10.871  26.015   6.544  0.0264 -0.0893 -0.2996
  938SSM    C3B11441  10.814  26.105   6.169  0.2053 -0.1322  0.0344
  938SSM    C4B11442  10.878  26.084   5.641  0.1594 -0.1050 -0.0127
  939SSM    NC311443   7.059  13.920   7.692 -0.3276 -0.0522  0.0045
  939SSM    PO411444   7.225  13.732   7.344  0.0313 -0.0723  0.0668
  939SSM    OH111445   7.119  13.437   7.109  0.1467  0.2893 -0.1577
  939SSM    AM211446   7.087  13.630   6.886 -0.0603 -0.2392  0.1219
  939SSM    T1A11447   7.135  13.203   6.864  0.4611 -0.1650  0.3303
  939SSM    C2A11448   7.014  13.251   6.507 -0.0685 -0.1613  0.1758
  939SSM    C3A11449   7.066  13.252   6.021  0.2584  0.1701 -0.2567
  939SSM    C4A11450   7.067  13.468   5.582 -0.0093  0.1080 -0.0477
  939SSM    C1B11451   7.036  14.018   6.779 -0.1397  0.0362 -0.2069
  939SSM    C2B11452   7.106  14.268   6.269 -0.1873  0.0160 -0.3753
  939SSM    C3B11453   7.262  14.373   5.894 -0.0254 -0.0391 -0.0231
  939SSM    C4B11454   7.224  14.292   5.426  0.0408  0.2375 -0.3088
  940SSM    NC311455  19.314   8.004   7.282 -0.0251 -0.2074  0.5329
  940SSM    PO411456  19.556   8.288   7.277 -0.4420  0.0229 -0.1741
  940SSM    OH111457  19.785   8.272   7.043 -0.2269  0.1412  0.2796
  940SSM    AM211458  19.610   8.073   6.858 -0.1991  0.0219  0.2284
  940SSM    T1A11459  19.943   8.370   6.772 -0.2481  0.0051 -0.0437
  940SSM    C2A11460  19.958   8.282   6.376  0.2767 -0.1316  0.0759
  940SSM    C3A11461  19.882   7.958   6.044  0.1371  0.1926  0.0912
  940SSM    C4A11462  19.738   7.739   5.623 -0.1049  0.1156 -0.1933
  940SSM    C1B11463  19.501   7.972   6.524 -0.2954 -0.0192  0.0430
  940SSM    C2B11464  19.349   8.047   6.048  0.1826  0.0114 -0.1361
  940SSM    C3B11465  19.235   8.193   5.672 -0.2229 -0.1554 -0.3377
  940SSM    C4B11466  19.344   7.885   5.468  0.0193  0.0616 -0.1039
  941SSM    NC311467   1.364  22.418   7.616  0.0792  0.1024  0.0282
  941SSM    PO411468   1.051  22.575   7.751  0.1750 -0.0348 -0.0942
  941SSM    OH111469   0.949  22.824   7.498 -0.0264  0.3178 -0.2421
  941SSM    AM211470   1.100  22.626   7.304 -0.0059 -0.1229 -0.3410
  941SSM    T1A11471   0.803  22.869   7.183  0.1193 -0.3717  0.2034
  941SSM    C2A11472   0.688  22.946   6.853  0.4180  0.0770  0.0439
  941SSM    C3A11473   0.652  22.994   6.288  0.1287 -0.1005 -0.0720
  941SSM    C4A11474   0.534  23.149   5.804 -0.2527 -0.1539  0.0956
  941SSM    C1B11475   1.124  22.562   6.907  0.0336  0.2393  0.0313
  941SSM    C2B11476   1.296  22.563   6.398  0.0318 -0.1335 -0.3477
  941SSM    C3B11477   1.388  22.571   5.920 -0.2586 -0.3986  0.1041
  941SSM    C4B11478   1.213  22.403   5.485  0.0385 -0.2500 -0.2895
  942SSM    NC311479  10.483   3.720   7.306  0.0386 -0.3048  0.1682
  942SSM    PO411480  10.561   3.352   7.303  0.0436 -0.1708  0.2796
  942SSM    OH111481  10.344   3.314   7.076  0.4943 -0.1177 -0.0759
  942SSM    AM211482  10.386   3.549   6.902  0.1246  0.0976  0.1465
  942SSM    T1A11483  10.199   3.207   6.760 -0.2752  0.2320  0.4297
  942SSM    C2A11484  10.193   3.173   6.330 -0.1743 -0.1588 -0.0323
  942SSM    C3A11485  10.078   2.951   5.926 -0.0653 -0.1232  0.1810
  942SSM    C4A11486   9.919   2.666   5.609  0.3056  0.0595 -0.0214
  942SSM    C1B11487  10.390   3.616   6.483  0.3434  0.2559  0.3797
  942SSM    C2B11488  10.459   3.687   5.917 -0.0746 -0.1289 -0.0548
  942SSM    C3B11489  10.439   3.650   5.459  0.0596  0.1629 -0.0234
  942SSM    C4B11490  10.400   3.329   5.039 -0.2231  0.2288  0.1175
  943SSM    NC311491  11.481  16.447   7.894 -0.4036 -0.2491 -0.0417
  943SSM    PO411492  11.274  16.087   7.915 -0.1571 -0.3940 -0.0875
  943SSM    OH111493  11.245  16.087   7.571  0.2583 -0.0096  0.1741
  943SSM    AM211494  11.101  16.350   7.572 -0.0622 -0.3467  0.0090
  943SSM    T1A11495  11.122  16.102   7.233 -0.3178  0.2637  0.0498
  943SSM    C2A11496  11.148  16.128   6.818  0.0297  0.0243 -0.0790
  943SSM    C3A11497  11.192  16.210   6.380  0.0400  0.2392  0.1412
  943SSM    C4A11498  11.179  16.320   5.849 -0.0046 -0.2506 -0.1594
  943SSM    C1B11499  10.902  16.517   7.223  0.0371  0.0089 -0.1960
  943SSM    C2B11500  10.982  16.543   6.668  0.0993  0.1232 -0.2767
  943SSM    C3B11501  10.881  16.601   6.175 -0.1242  0.1908 -0.1071
  943SSM    C4B11502  10.743  16.881   5.855  0.1149  0.3038  0.2290
  944SSM    NC311503  21.408  21.089   7.993  0.1439 -0.3658  0.3039
  944SSM    PO411504  21.350  21.392   7.739  0.0741 -0.3149  0.1387
  944SSM    OH111505  21.529  21.430   7.412 -0.1473  0.0127  0.0887
  944SSM    AM211506  21.369  21.224   7.296 -0.0132 -0.0449  0.0003
  944SSM    T1A11507  21.691  21.560   7.133 -0.1424 -0.1403  0.1033
  944SSM    C2A11508  21.882  21.799   6.768 -0.3553  0.0763  0.3030
  944SSM    C3A11509  21.847  22.121   6.336  0.1120  0.0419 -0.1614
  944SSM    C4A11510  21.717  22.294   5.903  0.2564  0.1230  0.0355
  944SSM    C1B11511  21.244  21.195   6.954  0.5886  0.0770  0.0025
  944SSM    C2B11512  21.218  21.054   6.523 -0.0799  0.1151 -0.0762
  944SSM    C3B11513  21.215  21.231   6.080  0.0733  0.0965  0.3066
  944SSM    C4B11514  21.559  21.357   5.665  0.0089  0.0523  0.1676
  945SSM    NC311515  11.382   5.664   8.015  0.1555  0.0697  0.0683
  945SSM    PO411516  11.379   5.464   7.667 -0.0707 -0.0923 -0.2584
  945SSM    OH111517  11.442   5.245   7.371 -0.2507 -0.0426  0.1311
  945SSM    AM211518  11.722   5.354   7.290  0.1018  0.1893 -0.2918
  945SSM    T1A11519  11.383   5.233   7.034 -0.4261  0.1712 -0.0153
  945SSM    C2A11520  11.305   5.279   6.661  0.0708  0.2781  0.1396
  945SSM    C3A11521  11.420   5.407   6.141 -0.0796  0.3302 -0.1189
  945SSM    C4A11522  11.059   5.670   5.956 -0.3048 -0.1357  0.1399
  945SSM    C1B11523  11.891   5.561   6.972 -0.2947  0.0820  0.1501
  945SSM    C2B11524  11.904   5.627   6.486  0.0620 -0.2293  0.0944
  945SSM    C3B11525  11.860   5.601   6.095 -0.0869 -0.2713 -0.0512
  945SSM    C4B11526  12.197   5.622   5.683  0.0320 -0.0848 -0.0680
  946SSM    NC311527   4.987  17.086   7.512  0.2786  0.3665  0.0124
  946SSM    PO411528   5.322  16.965   7.275 -0.0762 -0.1353 -0.0838
  946SSM    OH111529   5.251  17.030   6.948  0.0272 -0.2955  0.0151
  946SSM    AM211530   5.567  17.060   6.868  0.1846 -0.0627  0.1049
  946SSM    T1A11531   5.226  17.115   6.610 -0.1657 -0.0784  0.0119
  946SSM    C2A11532   5.203  17.150   6.263 -0.3057  0.2162  0.2064
  946SSM    C3A11533   4.931  16.903   5.912  0.3104  0.2474 -0.0761
  946SSM    C4A11534   4.722  16.878   5.494  0.4675  0.1733  0.0748
  946SSM    C1B11535   5.740  17.293   6.610 -0.1594 -0.1798 -0.2707
  946SSM    C2B11536   5.724  17.272   6.140  0.0606  0.1102 -0.1354
  946SSM    C3B11537   5.475  17.068   5.758  0.0897  0.0884 -0.0277
  946SSM    C4B11538   5.373  17.067   5.325 -0.2037  0.0029  0.1464
  947SSM    NC311539  25.387   6.082   8.021 -0.0416 -0.3321  0.2514
  947SSM    PO411540  25.321   6.485   7.968  0.0359 -0.0380  0.1274
  947SSM    OH111541  25.261   6.312   7.629  0.1663 -0.1271  0.1355
  947SSM    AM211542  25.388   6.543   7.487 -0.0785  0.3683 -0.3003
  947SSM    T1A11543  25.143   6.263   7.291 -0.3297  0.3964 -0.0094
  947SSM    C2A11544  25.173   6.062   6.901 -0.1496  0.2226  0.1101
  947SSM    C3A11545  25.222   6.184   6.440 -0.0302  0.1319  0.1677
  947SSM    C4A11546  25.466   5.984   6.068 -0.3523 -0.0404  0.1213
  947SSM    C1B11547  25.719   6.624   7.278  0.2113  0.2063 -0.1794
  947SSM    C2B11548  25.813   6.622   6.839  0.2545  0.5088 -0.0746
  947SSM    C3B11549  26.035   6.541   6.457  0.2340 -0.2038  0.3345
  947SSM    C4B11550  26.158   6.616   6.000  0.2141 -0.0731 -0.2080
  948SSM    NC311551   3.228  27.416   8.018  0.1046 -0.0096 -0.1697
  948SSM    PO411552   3.088  27.023   8.016 -0.2622 -0.0701 -0.0556
  948SSM    OH111553   2.897  26.962   7.666  0.2315  0.2481 -0.0380
  948SSM    AM211554   3.114  26.765   7.652 -0.2666  0.0530  0.1720
  948SSM    T1A11555   2.868  26.993   7.331  0.1650 -0.0207  0.2523
  948SSM    C2A11556   2.852  27.051   6.905 -0.1284 -0.3762 -0.0723
  948SSM    C3A11557   2.914  26.880   6.506  0.0233  0.2690 -0.0670
  948SSM    C4A11558   2.925  26.626   6.138 -0.0036  0.0362 -0.1508
  948SSM    C1B11559   3.392  26.544   7.421 -0.0036 -0.2348 -0.3410
  948SSM    C2B11560   3.880  26.346   7.317  0.1349  0.1370 -0.2374
  948SSM    C3B11561   3.955  26.208   6.892  0.0735  0.0413  0.4362
  948SSM    C4B11562   3.936  26.178   6.407  0.0958  0.1499 -0.0607
  949SSM    NC311563  10.085   2.535   7.408  0.1793 -0.2243  0.0632
  949SSM    PO411564  10.219   2.165   7.331  0.0020 -0.2791 -0.2318
  949SSM    OH111565  10.419   2.370   7.097  0.0079 -0.4022 -0.1896
  949SSM    AM211566  10.637   2.154   7.069  0.2647 -0.0503 -0.1463
  949SSM    T1A11567  10.653   2.543   6.896  0.4076 -0.0906  0.2835
  949SSM    C2A11568  10.882   2.508   6.556 -0.0591  0.0565  0.0134
  949SSM    C3A11569  10.970   2.406   6.099  0.0768  0.1995  0.0503
  949SSM    C4A11570  10.929   1.959   5.952 -0.3460 -0.1039 -0.3920
  949SSM    C1B11571  10.826   1.913   6.847 -0.3014 -0.0951 -0.1817
  949SSM    C2B11572  11.037   1.706   6.434 -0.3386 -0.0696  0.1736
  949SSM    C3B11573  11.228   1.516   6.054 -0.0814  0.0947  0.3486
  949SSM    C4B11574  11.366   1.156   5.707  0.1021  0.1753 -0.2361
  950SSM    NC311575  10.062   1.365   7.659 -0.3314 -0.0017  0.2626
  950SSM    PO411576  10.198   1.054   7.503 -0.1605 -0.1006  0.2245
  950SSM    OH111577  10.451   0.935   7.345 -0.1392 -0.4365  0.0955
  950SSM    AM211578  10.343   0.857   7.059 -0.0869  0.0806 -0.0882
  950SSM    T1A11579  10.760   0.934   7.171  0.0196  0.2140 -0.0766
  950SSM    C2A11580  10.971   0.925   6.869 -0.0134 -0.0441  0.0448
  950SSM    C3A11581  11.100   0.710   6.422 -0.0695 -0.2152 -0.0649
  950SSM    C4A11582  11.157   0.697   5.899  0.1134  0.0083 -0.2341
  950SSM    C1B11583  10.543   0.634   6.783 -0.0679 -0.2601 -0.1476
  950SSM    C2B11584  10.601   0.674   6.336  0.2209 -0.0151  0.1158
  950SSM    C3B11585  10.659   0.758   5.846 -0.2258  0.0170 -0.1821
  950SSM    C4B11586  10.685   0.874   5.317 -0.2423  0.1994 -0.3547
  951SSM    NC311587  14.103  19.821   7.512 -0.1289 -0.2064 -0.1697
  951SSM    PO411588  13.837  20.037   7.714  0.0596  0.0210  0.0044
  951SSM    OH111589  13.533  19.923   7.505  0.2558 -0.1358 -0.2268
  951SSM    AM211590  13.669  19.653   7.409 -0.1254 -0.4494 -0.1969
  951SSM    T1A11591  13.376  19.885   7.190  0.2228  0.0655 -0.2755
  951SSM    C2A11592  13.263  19.728   6.846 -0.0177 -0.2612 -0.3571
  951SSM    C3A11593  13.104  19.845   6.363  0.2601  0.1775  0.2945
  951SSM    C4A11594  13.186  20.181   5.957 -0.1663  0.1355 -0.0994
  951SSM    C1B11595  13.781  19.572   7.072 -0.2583  0.0480  0.3646
  951SSM    C2B11596  14.045  19.621   6.595 -0.1802 -0.2668 -0.1987
  951SSM    C3B11597  14.066  19.856   6.147  0.0050  0.3233  0.0043
  951SSM    C4B11598  14.212  20.063   5.722 -0.0408  0.4215  0.0912
  952SSM    NC311599  16.754  18.469   7.528 -0.0829  0.0565  0.0377
  952SSM    PO411600  16.466  18.169   7.460 -0.3269 -0.1801  0.4023
  952SSM    OH111601  16.327  18.228   7.147  0.3312 -0.2432  0.1705
  952SSM    AM211602  16.434  18.524   7.160  0.2893 -0.0724  0.0002
  952SSM    T1A11603  16.252  18.228   6.788  0.1890 -0.3152 -0.3001
  952SSM    C2A11604  16.545  18.276   6.516 -0.3566  0.1720 -0.3769
  952SSM    C3A11605  16.844  18.082   6.227  0.0318 -0.1832 -0.1170
  952SSM    C4A11606  16.753  17.911   5.736 -0.0804  0.3025  0.1910
  952SSM    C1B11607  16.474  18.671   6.809 -0.1087  0.0586  0.0851
  952SSM    C2B11608  16.476  18.734   6.263 -0.2274 -0.1506  0.0200
  952SSM    C3B11609  16.611  18.765   5.843 -0.1273 -0.2219 -0.4346
  952SSM    C4B11610  16.946  18.939   5.482 -0.3756  0.1522  0.1830
  953SSM    NC311611  21.645  11.376   7.812 -0.1128 -0.1387  0.0516
  953SSM    PO411612  22.021  11.341   7.752  0.3731 -0.0806 -0.0981
  953SSM    OH111613  22.108  11.167   7.424 -0.0786 -0.1276  0.0780
  953SSM    AM211614  22.097  11.427   7.268  0.0983 -0.2838 -0.1337
  953SSM    T1A11615  22.221  10.968   7.159 -0.2491 -0.1612  0.2871
  953SSM    C2A11616  22.234  10.964   6.776  0.1088 -0.1652 -0.2306
  953SSM    C3A11617  22.311  10.897   6.310 -0.0500  0.0610  0.0764
  953SSM    C4A11618  22.714  10.699   6.048  0.2062 -0.0608 -0.0491
  953SSM    C1B11619  22.249  11.466   6.952 -0.0311  0.2394 -0.1924
  953SSM    C2B11620  22.110  11.354   6.480  0.0488 -0.0315  0.2550
  953SSM    C3B11621  22.169  11.279   5.996  0.1103  0.0730 -0.0078
  953SSM    C4B11622  22.532  11.299   5.678 -0.0228  0.2035 -0.2122
  954SSM    NC311623   0.477  21.183   8.450 -0.0796 -0.2957 -0.0725
  954SSM    PO411624   0.389  21.118   8.074  0.0580  0.0592  0.1945
  954SSM    OH111625   0.566  21.216   7.766  0.2276  0.1016  0.1336
  954SSM    AM211626   0.513  20.944   7.634  0.1032 -0.0233  0.4149
  954SSM    T1A11627   0.676  21.302   7.447  0.2176  0.3049  0.2698
  954SSM    C2A11628   0.913  21.290   7.147  0.1782  0.1198  0.1687
  954SSM    C3A11629   0.861  21.288   6.630 -0.0961  0.0945  0.0057
  954SSM    C4A11630   0.817  21.493   6.155 -0.0368  0.1019 -0.0535
  954SSM    C1B11631   0.440  20.840   7.272  0.1082 -0.0758  0.0116
  954SSM    C2B11632   0.608  20.837   6.879  0.1379 -0.0950  0.1495
  954SSM    C3B11633   0.464  20.654   6.428 -0.2967 -0.0500  0.2074
  954SSM    C4B11634   0.399  20.616   5.888  0.3226 -0.1567 -0.1202
  955SSM    NC311635  10.691   6.303   7.992 -0.5449 -0.1008 -0.2763
  955SSM    PO411636  10.326   6.094   7.932 -0.3404 -0.2109  0.1334
  955SSM    OH111637  10.318   6.145   7.545 -0.0812  0.0803  0.2109
  955SSM    AM211638  10.624   6.033   7.534  0.5123 -0.3162 -0.2196
  955SSM    T1A11639  10.380   6.043   7.234  0.0067 -0.3845  0.0582
  955SSM    C2A11640  10.372   5.923   6.836  0.0996 -0.0520 -0.0754
  955SSM    C3A11641  10.505   5.813   6.335 -0.3964 -0.0134 -0.3210
  955SSM    C4A11642  10.603   5.993   5.848 -0.1692 -0.1124 -0.0441
  955SSM    C1B11643  10.912   5.941   7.191  0.0987 -0.3195 -0.0857
  955SSM    C2B11644  10.868   6.006   6.677  0.0277 -0.0114 -0.0626
  955SSM    C3B11645  10.910   6.104   6.245 -0.1054  0.0600  0.0608
  955SSM    C4B11646  10.972   6.378   5.866  0.0885 -0.0458  0.1306
  956SSM    NC311647  27.498  16.522   7.647  0.1618 -0.0818 -0.0131
  956SSM    PO411648  27.111  16.508   7.621  0.1470  0.2608 -0.3880
  956SSM    OH111649  26.961  16.777   7.438  0.3947 -0.3502  0.0181
  956SSM    AM211650  26.849  16.620   7.200  0.0893 -0.1523  0.0676
  956SSM    T1A11651  26.906  17.081   7.287  0.0441  0.0320 -0.1002
  956SSM    C2A11652  26.844  17.384   7.099  0.0408 -0.0907 -0.3924
  956SSM    C3A11653  26.680  17.598   6.660  0.0879  0.0283 -0.0313
  956SSM    C4A11654  26.538  17.910   6.304  0.0134 -0.1962 -0.2142
  956SSM    C1B11655  26.739  16.563   6.855  0.0980  0.1434  0.1494
  956SSM    C2B11656  26.542  16.620   6.397  0.5869  0.1682 -0.0434
  956SSM    C3B11657  26.201  16.461   6.048 -0.1519 -0.0977  0.0724
  956SSM    C4B11658  25.764  16.584   5.886 -0.1634  0.0679  0.0244
  957SSM    NC311659  14.101  22.529   8.012  0.2234  0.2014 -0.2011
  957SSM    PO411660  13.849  22.589   7.749  0.0369 -0.0086  0.2255
  957SSM    OH111661  13.935  22.623   7.359  0.3789  0.1087  0.1636
  957SSM    AM211662  13.767  22.362   7.296  0.3357 -0.0983  0.1416
  957SSM    T1A11663  14.063  22.559   7.056  0.1557  0.2437  0.1719
  957SSM    C2A11664  14.215  22.442   6.697 -0.0270 -0.1754 -0.1116
  957SSM    C3A11665  14.343  22.484   6.262  0.3049  0.0855 -0.0112
  957SSM    C4A11666  14.550  22.480   5.836  0.0759 -0.0778 -0.0674
  957SSM    C1B11667  13.808  22.189   6.954 -0.0380  0.0542 -0.0367
  957SSM    C2B11668  13.994  22.083   6.413  0.0968 -0.0884 -0.1288
  957SSM    C3B11669  14.194  22.049   6.061  0.2310  0.0796  0.0366
  957SSM    C4B11670  14.385  22.008   5.619 -0.0852  0.2292  0.1928
  958SSM    NC311671  18.048  18.260   7.750  0.0916 -0.2202 -0.0430
  958SSM    PO411672  18.330  18.502   7.912  0.1312 -0.0124 -0.2160
  958SSM    OH111673  18.397  18.599   7.597  0.2689  0.1546  0.3131
  958SSM    AM211674  18.147  18.545   7.398 -0.2599 -0.0506 -0.0670
  958SSM    T1A11675  18.548  18.800   7.335  0.0530 -0.3400  0.2406
  958SSM    C2A11676  18.503  18.937   6.941  0.4454  0.0230  0.0108
  958SSM    C3A11677  18.509  18.972   6.454 -0.0996  0.2974 -0.0874
  958SSM    C4A11678  18.258  19.178   6.108  0.1871 -0.2601  0.2211
  958SSM    C1B11679  17.789  18.405   7.315 -0.0810 -0.1774  0.3451
  958SSM    C2B11680  17.474  18.338   6.860  0.2000 -0.0725  0.1474
  958SSM    C3B11681  17.237  18.362   6.451  0.1852 -0.0749 -0.0957
  958SSM    C4B11682  17.045  18.463   5.995  0.2322 -0.1208  0.0025
  959SSM    NC311683   0.917   0.012   7.987  0.2274  0.0106 -0.1133
  959SSM    PO411684   0.816  -0.362   7.899 -0.0776  0.0054  0.0652
  959SSM    OH111685   0.908  -0.572   7.615  0.0227 -0.1438 -0.3203
  959SSM    AM211686   0.874  -0.396   7.380  0.0502 -0.4311  0.0708
  959SSM    T1A11687   0.974  -0.858   7.467  0.0348  0.4415  0.0296
  959SSM    C2A11688   1.087  -1.211   7.192 -0.0060  0.2736  0.1661
  959SSM    C3A11689   1.115  -1.324   6.729 -0.1463  0.0302 -0.0311
  959SSM    C4A11690   1.004  -1.493   6.247 -0.1027  0.0076 -0.2405
  959SSM    C1B11691   0.884  -0.181   7.052  0.1670  0.1005  0.2222
  959SSM    C2B11692   0.997  -0.146   6.535  0.0503  0.1044 -0.1360
  959SSM    C3B11693   1.127  -0.070   6.096  0.0062  0.0850 -0.2628
  959SSM    C4B11694   1.499  -0.217   5.814  0.4449  0.2525 -0.1205
  960SSM    NC311695   4.100  25.606   7.807 -0.0167  0.1332 -0.2099
  960SSM    PO411696   4.455  25.735   7.946 -0.1303 -0.1279 -0.1464
  960SSM    OH111697   4.663  25.834   7.687 -0.2420  0.2256  0.2114
  960SSM    AM211698   4.524  25.700   7.457 -0.2362  0.2193 -0.1732
  960SSM    T1A11699   4.710  26.088   7.447  0.4264  0.0823  0.3605
  960SSM    C2A11700   4.739  26.389   7.175  0.3639  0.5735  0.1540
  960SSM    C3A11701   4.852  26.641   6.792  0.0711 -0.1185  0.1732
  960SSM    C4A11702   4.914  26.658   6.288  0.2905 -0.2527  0.1505
  960SSM    C1B11703   4.548  25.536   7.098 -0.1025 -0.0826 -0.1333
  960SSM    C2B11704   4.598  25.389   6.561 -0.1528  0.0444  0.1557
  960SSM    C3B11705   4.465  25.239   6.139  0.0508 -0.1352  0.0061
  960SSM    C4B11706   4.440  25.057   5.633 -0.0211  0.0101 -0.1111
  961SSM    NC311707  15.803   0.333   7.827  0.0648 -0.2614 -0.1703
  961SSM    PO411708  16.133   0.293   8.022  0.3285  0.0571 -0.0425
  961SSM    OH111709  16.443   0.313   7.785  0.0287  0.1156  0.0484
  961SSM    AM211710  16.434   0.012   7.779 -0.1422  0.0125  0.1929
  961SSM    T1A11711  16.675   0.215   7.513 -0.1076 -0.3690 -0.2771
  961SSM    C2A11712  16.655   0.123   7.174  0.1703  0.0625  0.2432
  961SSM    C3A11713  16.707   0.121   6.666  0.2433 -0.0311  0.1176
  961SSM    C4A11714  16.616   0.198   6.195  0.1675 -0.0657 -0.0619
  961SSM    C1B11715  16.464  -0.276   7.513 -0.0208 -0.0565  0.0577
  961SSM    C2B11716  16.314  -0.551   7.133 -0.0538 -0.1713  0.0963
  961SSM    C3B11717  16.233  -0.698   6.645  0.2404 -0.0318  0.1773
  961SSM    C4B11718  16.228  -0.951   6.221  0.0581  0.0283 -0.1260
  962SSM    NC311719  20.086  26.762   7.898  0.2400 -0.0155  0.0752
  962SSM    PO411720  20.111  26.528   7.590  0.1831 -0.0066  0.0220
  962SSM    OH111721  20.066  26.824   7.360  0.2751  0.1047  0.2277
  962SSM    AM211722  20.133  26.648   7.115  0.4060 -0.0667 -0.0847
  962SSM    T1A11723  20.057  27.083   7.134  0.0687  0.0238  0.1742
  962SSM    C2A11724  19.936  27.202   6.763 -0.1041 -0.0879  0.0195
  962SSM    C3A11725  19.764  27.342   6.387 -0.0231 -0.1673  0.3322
  962SSM    C4A11726  19.518  27.603   6.080 -0.0068 -0.2093 -0.3996
  962SSM    C1B11727  20.054  26.702   6.753  0.2150  0.2733 -0.0026
  962SSM    C2B11728  19.971  26.648   6.235 -0.2546  0.1225  0.2122
  962SSM    C3B11729  19.662  26.629   5.776  0.2179 -0.1518 -0.2408
  962SSM    C4B11730  19.458  26.375   5.364  0.3031 -0.0971 -0.0295
  963SSM    NC311731  26.074  13.568   8.066  0.1534 -0.0998  0.3366
  963SSM    PO411732  25.789  13.769   7.851  0.0564 -0.1801  0.1154
  963SSM    OH111733  25.942  13.748   7.541 -0.2678  0.0532  0.4498
  963SSM    AM211734  25.718  13.599   7.383 -0.4348 -0.0127 -0.0993
  963SSM    T1A11735  26.187  13.756   7.293 -0.1559 -0.0568  0.4193
  963SSM    C2A11736  26.297  13.706   6.922  0.0625  0.3301 -0.1101
  963SSM    C3A11737  26.375  13.502   6.465  0.0421  0.1448  0.0079
  963SSM    C4A11738  26.256  13.330   6.143 -0.1680 -0.1910 -0.4334
  963SSM    C1B11739  25.483  13.447   7.099  0.0103 -0.0258 -0.1280
  963SSM    C2B11740  25.423  13.320   6.652  0.0483  0.2164 -0.0348
  963SSM    C3B11741  25.465  13.323   6.178 -0.4525 -0.0372  0.0739
  963SSM    C4B11742  25.447  13.213   5.742  0.0515 -0.3162  0.0027
  964SSM    NC311743  21.504  10.201   7.373  0.1836 -0.1936  0.1307
  964SSM    PO411744  21.573   9.808   7.471  0.1378 -0.3257  0.3073
  964SSM    OH111745  21.664   9.718   7.116  0.0333  0.0592  0.0622
  964SSM    AM211746  21.966   9.800   7.162  0.1572  0.0740  0.3880
  964SSM    T1A11747  21.672   9.716   6.759 -0.1183  0.5139 -0.1452
  964SSM    C2A11748  21.662   9.793   6.370 -0.0507 -0.0413 -0.0036
  964SSM    C3A11749  21.653   9.910   5.915  0.1915  0.3035 -0.1207
  964SSM    C4A11750  21.542   9.987   5.440  0.1705  0.0160 -0.1731
  964SSM    C1B11751  22.306  10.008   7.041 -0.2316  0.1170 -0.0066
  964SSM    C2B11752  22.651  10.338   6.841 -0.0591 -0.0373 -0.0438
  964SSM    C3B11753  22.882  10.406   6.425 -0.1419 -0.3719  0.1007
  964SSM    C4B11754  23.315  10.417   6.152  0.0126  0.3073  0.0587
  965SSM    NC311755   6.971   7.743   7.698 -0.0430 -0.1444  0.1145
  965SSM    PO411756   6.888   7.641   7.343 -0.0153  0.0222  0.0453
  965SSM    OH111757   6.610   7.694   7.069 -0.1607 -0.5129 -0.1847
  965SSM    AM211758   6.810   7.727   6.830 -0.0356  0.2135 -0.3482
  965SSM    T1A11759   6.391   7.750   6.801 -0.3442  0.4164 -0.0198
  965SSM    C2A11760   6.436   7.773   6.434 -0.0443  0.2075 -0.1334
  965SSM    C3A11761   6.227   7.826   6.022  0.1270  0.0016 -0.2024
  965SSM    C4A11762   5.820   7.831   5.730 -0.0140  0.1835 -0.1109
  965SSM    C1B11763   7.029   7.916   6.602  0.0585  0.0427  0.2361
  965SSM    C2B11764   7.040   7.815   6.067  0.1373 -0.3201  0.0585
  965SSM    C3B11765   7.083   7.680   5.592  0.1758 -0.2625 -0.2518
  965SSM    C4B11766   7.290   7.464   5.150 -0.0056  0.1107 -0.3411
  966SSM    NC311767  21.284  19.423   7.576  0.3035 -0.1699  0.0066
  966SSM    PO411768  21.355  19.800   7.446 -0.1905 -0.0702  0.1550
  966SSM    OH111769  21.647  19.749   7.215  0.1313 -0.1121  0.1127
  966SSM    AM211770  21.481  19.545   7.058 -0.3521 -0.0418  0.1100
  966SSM    T1A11771  21.797  19.812   6.895  0.3333  0.1446 -0.2043
  966SSM    C2A11772  21.741  19.667   6.517 -0.1606  0.1182  0.1227
  966SSM    C3A11773  21.637  19.625   6.023 -0.3737  0.1374  0.0854
  966SSM    C4A11774  21.544  19.996   5.739  0.1590 -0.0506  0.0625
  966SSM    C1B11775  21.282  19.439   6.699  0.1613  0.2755 -0.1609
  966SSM    C2B11776  21.190  19.379   6.208 -0.1704  0.0525 -0.1042
  966SSM    C3B11777  21.050  19.339   5.765  0.2451  0.0377 -0.3737
  966SSM    C4B11778  20.753  19.286   5.426  0.0821  0.0987  0.0448
  967SSM    NC311779   3.586   1.637   7.844  0.1086 -0.0621 -0.0400
  967SSM    PO411780   3.973   1.824   7.787 -0.2557 -0.0606  0.0386
  967SSM    OH111781   4.025   1.733   7.458 -0.0058  0.2804 -0.2405
  967SSM    AM211782   4.004   2.011   7.348 -0.0603 -0.0619  0.0269
  967SSM    T1A11783   4.003   1.670   7.130 -0.2347  0.2052  0.0122
  967SSM    C2A11784   4.010   1.729   6.743  0.0892 -0.1797 -0.0763
  967SSM    C3A11785   4.012   1.852   6.306 -0.3561 -0.1454  0.0808
  967SSM    C4A11786   4.050   2.302   6.038  0.0504  0.2220  0.2879
  967SSM    C1B11787   4.067   2.302   7.071  0.0977  0.1170  0.2048
  967SSM    C2B11788   4.048   2.314   6.569 -0.1881 -0.2879 -0.2176
  967SSM    C3B11789   4.436   2.437   6.349  0.1475  0.0920  0.1289
  967SSM    C4B11790   4.858   2.643   6.225 -0.0452  0.1079 -0.1723
  968SSM    NC311791  26.620   7.515   8.059 -0.4106 -0.1535 -0.1828
  968SSM    PO411792  26.368   7.259   7.866 -0.1699 -0.1897  0.1628
  968SSM    OH111793  26.068   7.362   7.684 -0.2984  0.0734  0.1659
  968SSM    AM211794  26.001   7.100   7.550  0.0756  0.0415 -0.3005
  968SSM    T1A11795  26.017   7.492   7.366 -0.2159 -0.0715 -0.3727
  968SSM    C2A11796  25.877   7.511   6.960 -0.1432 -0.0722  0.0219
  968SSM    C3A11797  25.764   7.677   6.463 -0.5373  0.1168  0.0472
  968SSM    C4A11798  25.820   7.785   6.005 -0.5237  0.1117 -0.0911
  968SSM    C1B11799  25.963   7.042   7.167  0.0638  0.1727 -0.0215
  968SSM    C2B11800  26.187   7.007   6.678 -0.0231  0.1409  0.2708
  968SSM    C3B11801  26.381   7.040   6.181 -0.2597  0.0413  0.0619
  968SSM    C4B11802  26.551   6.906   5.711  0.0708  0.0514 -0.6367
  969SSM    NC311803  12.858  18.582   7.158 -0.2046 -0.0328  0.2693
  969SSM    PO411804  13.123  18.530   7.443  0.0036 -0.0107  0.1033
  969SSM    OH111805  13.330  18.242   7.301  0.1085  0.0708 -0.0899
  969SSM    AM211806  13.356  18.394   7.048 -0.1870  0.3825 -0.1124
  969SSM    T1A11807  13.572  18.041   7.120  0.0597 -0.1560  0.0602
  969SSM    C2A11808  13.540  17.817   6.828  0.4453  0.3203  0.2784
  969SSM    C3A11809  13.675  17.711   6.354 -0.1098 -0.2922  0.0144
  969SSM    C4A11810  13.699  17.554   5.849 -0.4360  0.3243  0.3222
  969SSM    C1B11811  13.399  18.387   6.641 -0.1953  0.1130  0.1643
  969SSM    C2B11812  13.380  18.504   6.134  0.0315  0.3091 -0.0449
  969SSM    C3B11813  13.518  18.512   5.695 -0.3396 -0.3079  0.0183
  969SSM    C4B11814  13.786  18.398   5.257  0.4420 -0.0828  0.1871
  970SSM    NC311815   1.084   6.195   8.362 -0.0090 -0.1243 -0.0494
  970SSM    PO411816   0.862   6.390   8.138  0.1954 -0.0110 -0.0487
  970SSM    OH111817   0.976   6.631   7.874 -0.1363  0.0912 -0.0080
  970SSM    AM211818   0.790   6.481   7.684 -0.0798 -0.0613 -0.2426
  970SSM    T1A11819   1.201   6.583   7.638 -0.3456  0.2334 -0.1310
  970SSM    C2A11820   1.402   6.446   7.302  0.1177 -0.1641 -0.0383
  970SSM    C3A11821   1.691   6.286   6.945  0.0770  0.1319 -0.1068
  970SSM    C4A11822   1.426   6.183   6.506  0.0411  0.0398  0.2894
  970SSM    C1B11823   0.646   6.306   7.385 -0.1415 -0.1238  0.2625
  970SSM    C2B11824   0.561   6.130   6.911  0.1882 -0.3024 -0.0001
  970SSM    C3B11825   0.391   6.149   6.432  0.0038  0.2475 -0.1010
  970SSM    C4B11826   0.282   6.043   5.960 -0.2589 -0.3234 -0.1493
  971SSM    NC311827  10.472   8.088   8.033 -0.0111 -0.1447  0.0150
  971SSM    PO411828  10.283   8.267   7.734 -0.2384 -0.0101 -0.0262
  971SSM    OH111829  10.354   8.442   7.399  0.3028  0.1281 -0.0030
  971SSM    AM211830  10.556   8.209   7.306  0.1537 -0.2771  0.0369
  971SSM    T1A11831  10.379   8.580   7.070  0.0871 -0.4205 -0.0640
  971SSM    C2A11832  10.459   8.804   6.725 -0.1355 -0.1434 -0.2833
  971SSM    C3A11833  10.586   8.994   6.303 -0.0251  0.0185  0.2809
  971SSM    C4A11834  10.789   9.041   5.865 -0.5221  0.0364 -0.0075
  971SSM    C1B11835  10.610   8.073   6.962  0.0490 -0.0188  0.0332
  971SSM    C2B11836  10.600   8.017   6.485  0.1936  0.3383  0.4698
  971SSM    C3B11837  10.608   8.034   5.972 -0.0071 -0.0254 -0.1106
  971SSM    C4B11838  10.679   8.058   5.498  0.1622 -0.2528  0.4124
  972SSM    NC311839  27.501   5.431   8.000  0.2915  0.1305 -0.0293
  972SSM    PO411840  27.789   5.608   7.808 -0.3122 -0.2057  0.1088
  972SSM    OH111841  27.716   5.664   7.447 -0.6496  0.1295  0.0655
  972SSM    AM211842  27.720   5.990   7.487  0.1493 -0.3231 -0.1223
  972SSM    T1A11843  27.843   5.732   7.151  0.2247 -0.1605  0.0084
  972SSM    C2A11844  27.795   5.724   6.796 -0.3006  0.2073  0.0175
  972SSM    C3A11845  27.950   5.666   6.358 -0.2232  0.2865 -0.0092
  972SSM    C4A11846  27.993   5.529   5.851 -0.0057 -0.0407  0.0015
  972SSM    C1B11847  27.780   6.161   7.116 -0.0870  0.2065 -0.1312
  972SSM    C2B11848  27.773   6.516   6.720  0.0407  0.3764  0.2514
  972SSM    C3B11849  27.846   6.714   6.264 -0.1978  0.0757 -0.0532
  972SSM    C4B11850  27.598   6.981   6.050 -0.1983  0.1601 -0.1639
  973SSM    NC311851  26.302  12.072   7.518 -0.2215  0.1191  0.0739
  973SSM    PO411852  26.660  11.932   7.666 -0.0273  0.0242  0.2921
  973SSM    OH111853  26.866  11.947   7.313 -0.0641 -0.0599  0.1119
  973SSM    AM211854  26.591  11.960   7.202 -0.0297 -0.3749  0.1096
  973SSM    T1A11855  26.985  11.980   6.995  0.0888 -0.1447 -0.3378
  973SSM    C2A11856  27.003  11.940   6.609 -0.1074  0.0595 -0.5342
  973SSM    C3A11857  27.131  11.574   6.213  0.0061  0.0873 -0.0412
  973SSM    C4A11858  27.052  11.218   5.891 -0.0095 -0.4040  0.0066
  973SSM    C1B11859  26.308  11.870   6.959 -0.1814 -0.2938 -0.2901
  973SSM    C2B11860  26.518  11.807   6.476 -0.0853 -0.1900 -0.3831
  973SSM    C3B11861  26.657  11.789   5.984 -0.1814 -0.2321 -0.2962
  973SSM    C4B11862  26.403  11.908   5.652  0.1386  0.3844 -0.0116
  974SSM    NC311863   8.202   1.366   7.616 -0.1129  0.0636  0.1703
  974SSM    PO411864   8.142   1.600   7.298 -0.1671  0.0367  0.1169
  974SSM    OH111865   8.348   1.475   6.991  0.4138 -0.0848 -0.1502
  974SSM    AM211866   8.092   1.457   6.837  0.2317  0.2644  0.0566
  974SSM    T1A11867   8.498   1.342   6.727  0.3524 -0.0865  0.1862
  974SSM    C2A11868   8.477   1.231   6.390 -0.0332 -0.2788 -0.0047
  974SSM    C3A11869   8.433   1.101   5.916 -0.2767 -0.0657 -0.0032
  974SSM    C4A11870   8.771   0.878   5.555 -0.1477 -0.2928 -0.1028
  974SSM    C1B11871   8.024   1.368   6.451  0.1163 -0.3541 -0.2326
  974SSM    C2B11872   7.999   1.317   5.982  0.2941 -0.3344 -0.0980
  974SSM    C3B11873   8.315   1.530   5.671 -0.0136  0.2992  0.0435
  974SSM    C4B11874   8.380   1.928   5.461 -0.1494 -0.0507  0.2540
  975SSM    NC311875   7.650  24.120   7.877  0.3193 -0.0895 -0.1163
  975SSM    PO411876   7.288  24.129   8.093 -0.1108  0.1119  0.3864
  975SSM    OH111877   6.975  24.271   8.027 -0.1649 -0.0178 -0.0511
  975SSM    AM211878   7.095  24.424   7.796  0.0381  0.0078 -0.0779
  975SSM    T1A11879   6.672  24.349   7.890 -0.1238 -0.1076  0.0313
  975SSM    C2A11880   6.305  24.474   7.694 -0.2555 -0.1356  0.0235
  975SSM    C3A11881   6.039  24.668   7.263 -0.0322 -0.1141  0.3262
  975SSM    C4A11882   5.936  24.778   6.768 -0.3034 -0.2343  0.0201
  975SSM    C1B11883   7.092  24.336   7.463 -0.0839  0.0950 -0.1329
  975SSM    C2B11884   6.989  24.302   6.979 -0.2282  0.0073  0.1876
  975SSM    C3B11885   6.966  24.330   6.541  0.0897 -0.2288  0.0699
  975SSM    C4B11886   6.959  24.155   6.056  0.2135 -0.0853  0.2085
  976SSM    NC311887  21.001  10.853   7.243 -0.0159  0.3180  0.2474
  976SSM    PO411888  21.262  10.687   7.479 -0.0959 -0.2321  0.2609
  976SSM    OH111889  21.488  10.678   7.154  0.3477 -0.0757  0.2413
  976SSM    AM211890  21.249  10.517   7.031 -0.0325 -0.1069  0.5159
  976SSM    T1A11891  21.665  10.630   6.860 -0.0243  0.0606 -0.0402
  976SSM    C2A11892  21.867  10.738   6.538  0.1321  0.2012 -0.0161
  976SSM    C3A11893  21.793  10.936   6.121 -0.3196 -0.1682  0.1849
  976SSM    C4A11894  21.698  11.268   5.684 -0.1677 -0.2521 -0.1601
  976SSM    C1B11895  21.022  10.423   6.722 -0.1808 -0.2085 -0.1426
  976SSM    C2B11896  20.864  10.372   6.210 -0.2154 -0.0550  0.0996
  976SSM    C3B11897  20.843  10.079   5.886  0.1948  0.1428 -0.0187
  976SSM    C4B11898  20.997   9.783   5.534  0.3545 -0.0640 -0.0355
  977SSM    NC311899   2.911  21.318   7.491  0.0235  0.0329 -0.0781
  977SSM    PO411900   2.688  21.028   7.633  0.1940 -0.1185  0.4174
  977SSM    OH111901   2.424  20.888   7.389 -0.0460 -0.0649  0.4091
  977SSM    AM211902   2.625  20.650   7.330 -0.0921  0.1763 -0.4373
  977SSM    T1A11903   2.281  20.806   7.065  0.4013 -0.0868  0.0505
  977SSM    C2A11904   2.471  20.944   6.736  0.2872 -0.3355  0.0432
  977SSM    C3A11905   2.406  20.781   6.303 -0.0314  0.0619 -0.0750
  977SSM    C4A11906   2.293  20.408   5.956 -0.0392 -0.0438 -0.0779
  977SSM    C1B11907   2.630  20.408   6.948  0.0734  0.0002 -0.2597
  977SSM    C2B11908   2.738  20.313   6.453  0.0071 -0.1443  0.1870
  977SSM    C3B11909   2.656  20.079   6.025  0.1648  0.1984  0.1963
  977SSM    C4B11910   2.518  19.810   5.620 -0.0475  0.1171  0.1209
  978SSM    NC311911   6.007  18.432   7.766 -0.1059 -0.1517 -0.0391
  978SSM    PO411912   6.195  18.095   7.651 -0.1364 -0.0478 -0.1147
  978SSM    OH111913   6.068  18.224   7.299 -0.2914 -0.0570  0.0626
  978SSM    AM211914   6.230  18.012   7.164  0.0954  0.1889  0.2497
  978SSM    T1A11915   5.923  18.227   6.965 -0.1025 -0.2040 -0.0274
  978SSM    C2A11916   6.021  18.184   6.567 -0.0290 -0.1020 -0.0264
  978SSM    C3A11917   5.996  18.277   6.092 -0.0207  0.0051 -0.1348
  978SSM    C4A11918   6.085  18.451   5.610  0.0366  0.2307  0.2393
  978SSM    C1B11919   6.330  17.867   6.901  0.2208  0.0244  0.0459
  978SSM    C2B11920   6.355  17.777   6.398  0.1323 -0.1797  0.3360
  978SSM    C3B11921   6.407  17.771   5.941 -0.0963  0.1551  0.1233
  978SSM    C4B11922   6.318  17.561   5.491 -0.0406  0.1496 -0.1748
  979SSM    NC311923  12.317   3.972   7.860  0.3386  0.0091  0.0437
  979SSM    PO411924  12.547   3.665   7.858 -0.0616  0.2651  0.1426
  979SSM    OH111925  12.749   3.611   7.577  0.3952 -0.2722  0.2486
  979SSM    AM211926  12.520   3.564   7.406 -0.3651  0.0901  0.0996
  979SSM    T1A11927  12.961   3.575   7.296 -0.0137 -0.3020  0.1923
  979SSM    C2A11928  12.998   3.466   6.928  0.2808  0.0698  0.1062
  979SSM    C3A11929  12.883   3.421   6.528  0.2027  0.4360  0.4920
  979SSM    C4A11930  12.815   3.197   6.075 -0.0328 -0.1766  0.1800
  979SSM    C1B11931  12.386   3.576   7.108 -0.0674 -0.3322  0.1443
  979SSM    C2B11932  12.422   3.579   6.605  0.2749 -0.0808 -0.0559
  979SSM    C3B11933  12.443   3.692   6.127  0.2266 -0.1350  0.1291
  979SSM    C4B11934  12.628   3.595   5.721 -0.0535  0.0302 -0.0398
  980SSM    NC311935  23.274  24.359   7.494  0.0065 -0.0794  0.0718
  980SSM    PO411936  22.897  24.228   7.477 -0.1054  0.0718 -0.6021
  980SSM    OH111937  22.871  24.448   7.195  0.2656  0.1356 -0.1152
  980SSM    AM211938  23.043  24.291   6.988  0.2672  0.2892  0.0508
  980SSM    T1A11939  22.771  24.629   6.931  0.1653  0.3610 -0.1327
  980SSM    C2A11940  22.719  24.741   6.618 -0.0808  0.1658  0.1928
  980SSM    C3A11941  22.685  24.657   6.130 -0.0485  0.0248 -0.0825
  980SSM    C4A11942  22.553  24.654   5.650  0.0093 -0.2470 -0.0672
  980SSM    C1B11943  23.025  24.067   6.745 -0.1360  0.1768  0.0720
  980SSM    C2B11944  22.820  23.744   6.365  0.2762  0.1366  0.0529
  980SSM    C3B11945  22.506  23.525   5.999  0.2442 -0.0409  0.1738
  980SSM    C4B11946  22.397  23.259   5.602 -0.1252  0.0080 -0.1043
  981SSM    NC311947  10.605  16.231   7.704 -0.2268 -0.3644  0.3612
  981SSM    PO411948  10.265  16.402   7.726  0.0948 -0.2791 -0.0285
  981SSM    OH111949  10.260  16.599   7.410  0.1391 -0.0251  0.1115
  981SSM    AM211950  10.457  16.404   7.284  0.0288  0.0544  0.1242
  981SSM    T1A11951  10.241  16.710   7.065 -0.2279 -0.0043  0.0710
  981SSM    C2A11952  10.231  16.689   6.666  0.3182 -0.2109  0.1034
  981SSM    C3A11953  10.272  16.727   6.152  0.1708 -0.0489  0.5748
  981SSM    C4A11954  10.290  16.827   5.645 -0.1439 -0.1755 -0.2024
  981SSM    C1B11955  10.562  16.232   6.867  0.0203 -0.0650  0.2778
  981SSM    C2B11956  10.517  16.331   6.383 -0.1653  0.1213  0.1095
  981SSM    C3B11957  10.549  16.394   5.881  0.1675 -0.0174 -0.0967
  981SSM    C4B11958  10.586  16.541   5.393  0.0816  0.0267 -0.0743
  982SSM    NC311959   2.158  21.875   7.944 -0.1227 -0.1613  0.0168
  982SSM    PO411960   2.163  21.466   7.917  0.3688  0.2153  0.1894
  982SSM    OH111961   2.433  21.441   7.654 -0.0451 -0.0787 -0.1718
  982SSM    AM211962   2.382  21.709   7.562 -0.0558  0.1809  0.2017
  982SSM    T1A11963   2.481  21.359   7.328 -0.7954 -0.2310  0.3966
  982SSM    C2A11964   2.598  21.430   6.953  0.2180 -0.1203  0.2125
  982SSM    C3A11965   2.519  21.405   6.445 -0.2749 -0.0692 -0.0665
  982SSM    C4A11966   2.418  21.256   6.017 -0.1355  0.0401 -0.3127
  982SSM    C1B11967   2.418  22.076   7.364  0.2050  0.1748 -0.3281
  982SSM    C2B11968   2.588  22.288   6.950 -0.1707  0.1224 -0.1211
  982SSM    C3B11969   2.551  22.102   6.484  0.0766  0.0850  0.1506
  982SSM    C4B11970   2.552  22.022   6.004  0.3512 -0.1670 -0.0403
  983SSM    NC311971  26.526   2.785   8.805  0.3684  0.0388  0.0745
  983SSM    PO411972  26.621   2.942   8.426  0.2042  0.2222 -0.0853
  983SSM    OH111973  26.456   2.826   8.144  0.2724 -0.1009 -0.2899
  983SSM    AM211974  26.674   2.882   7.944  0.0375  0.1729 -0.0003
  983SSM    T1A11975  26.260   2.886   7.865  0.1489 -0.1726  0.2108
  983SSM    C2A11976  26.177   3.114   7.574 -0.1976 -0.1919 -0.1307
  983SSM    C3A11977  26.220   3.494   7.343 -0.1318 -0.1136 -0.3351
  983SSM    C4A11978  25.924   3.669   6.941  0.0969  0.0850 -0.2371
  983SSM    C1B11979  26.839   2.871   7.547 -0.1485  0.0483 -0.0527
  983SSM    C2B11980  27.082   3.201   7.195 -0.2033  0.2120 -0.2255
  983SSM    C3B11981  26.982   3.357   6.801 -0.4984  0.0603 -0.2203
  983SSM    C4B11982  27.083   3.447   6.267 -0.0806  0.1472 -0.3050
  984SSM    NC311983  23.999  26.635   7.950 -0.1484 -0.1681  0.1975
  984SSM    PO411984  24.134  26.539   7.558 -0.0377 -0.1157 -0.1110
  984SSM    OH111985  24.271  26.747   7.265  0.2178 -0.0303 -0.0626
  984SSM    AM211986  24.157  26.525   7.084 -0.0357  0.0661 -0.2579
  984SSM    T1A11987  24.467  26.890   7.021  0.0663  0.3209  0.2750
  984SSM    C2A11988  24.569  26.898   6.636 -0.1490  0.1645 -0.0830
  984SSM    C3A11989  24.694  26.942   6.126 -0.0022 -0.0946  0.1081
  984SSM    C4A11990  24.632  26.984   5.642 -0.1225  0.2498 -0.1121
  984SSM    C1B11991  24.254  26.444   6.719  0.2589 -0.2287 -0.2335
  984SSM    C2B11992  24.309  26.564   6.209 -0.1312 -0.1481  0.1971
  984SSM    C3B11993  24.272  26.534   5.730 -0.2595  0.2231  0.2174
  984SSM    C4B11994  24.469  26.527   5.240  0.1089 -0.1850  0.0033
  985SSM    NC311995  18.235   8.511   7.395  0.1152  0.1462  0.0846
  985SSM    PO411996  17.868   8.435   7.306  0.1884 -0.4360 -0.4586
  985SSM    OH111997  18.029   8.275   7.012  0.0944 -0.0856  0.1320
  985SSM    AM211998  18.192   8.514   6.936  0.3043 -0.0388  0.1804
  985SSM    T1A11999  18.063   8.185   6.693 -0.1761  0.2297  0.1843
  985SSM    C2A12000  18.019   8.321   6.300 -0.0372 -0.0584 -0.0368
  985SSM    C3A12001  18.093   8.370   5.840  0.0031  0.0904 -0.5280
  985SSM    C4A12002  18.047   8.425   5.332  0.0832 -0.0046  0.3005
  985SSM    C1B12003  18.399   8.573   6.625  0.1952  0.0602  0.0378
  985SSM    C2B12004  18.538   8.411   6.160 -0.0243  0.0090 -0.2972
  985SSM    C3B12005  18.680   8.354   5.775  0.0131  0.0696  0.0667
  985SSM    C4B12006  18.858   8.302   5.329 -0.2400 -0.0653  0.0580
  986SSM    NC312007  15.809  23.032   7.814  0.3441 -0.2606  0.0204
  986SSM    PO412008  15.789  22.694   7.578 -0.2328 -0.0304  0.1747
  986SSM    OH112009  15.824  22.727   7.203  0.2373  0.1703  0.1486
  986SSM    AM212010  15.514  22.816   7.194  0.0741  0.3586  0.2103
  986SSM    T1A12011  15.752  22.729   6.874  0.4727  0.1793 -0.1135
  986SSM    C2A12012  15.628  22.778   6.485  0.1174 -0.0068  0.0491
  986SSM    C3A12013  15.481  22.950   6.065  0.2190  0.4155 -0.1456
  986SSM    C4A12014  15.353  22.861   5.612  0.2740 -0.0413 -0.0124
  986SSM    C1B12015  15.253  22.858   6.912  0.0954 -0.2633 -0.0260
  986SSM    C2B12016  15.210  23.004   6.481  0.3196  0.0624  0.0859
  986SSM    C3B12017  15.034  23.164   6.145 -0.0061  0.0285  0.2116
  986SSM    C4B12018  14.987  23.396   5.736 -0.1991 -0.0986 -0.2500
  987SSM    NC312019  18.366  22.549   7.947  0.0532  0.3524  0.3103
  987SSM    PO412020  18.686  22.768   7.930  0.1680 -0.2446 -0.0014
  987SSM    OH112021  18.617  22.979   7.614 -0.1180  0.3426 -0.1269
  987SSM    AM212022  18.899  22.906   7.492  0.2823 -0.0855 -0.0390
  987SSM    T1A12023  18.525  22.933   7.314  0.1000 -0.3456 -0.1696
  987SSM    C2A12024  18.544  22.888   6.951  0.0037 -0.1007 -0.1600
  987SSM    C3A12025  18.516  22.846   6.482 -0.0228 -0.1822 -0.0349
  987SSM    C4A12026  18.670  22.913   6.060  0.2892 -0.0514  0.2487
  987SSM    C1B12027  19.028  22.608   7.242 -0.1730 -0.1814  0.0530
  987SSM    C2B12028  18.855  22.483   6.772 -0.1551 -0.0400 -0.5079
  987SSM    C3B12029  18.748  22.446   6.295 -0.0951  0.0468 -0.2376
  987SSM    C4B12030  18.810  22.490   5.751  0.1277  0.2393 -0.1796
  988SSM    NC312031   0.468   8.980   7.758  0.5233  0.3544  0.2214
  988SSM    PO412032   0.247   8.783   8.016  0.1730 -0.1166 -0.0283
  988SSM    OH112033   0.259   8.408   7.919 -0.3055  0.1819  0.0645
  988SSM    AM212034   0.363   8.512   7.656  0.0501  0.1697 -0.2456
  988SSM    T1A12035   0.470   8.156   7.881 -0.1347  0.1304  0.0155
  988SSM    C2A12036   0.754   8.077   7.626 -0.1643  0.3076 -0.1100
  988SSM    C3A12037   0.851   7.995   7.169  0.2116  0.0793 -0.2642
  988SSM    C4A12038   0.994   8.003   6.696 -0.0290 -0.0265  0.0280
  988SSM    C1B12039   0.585   8.580   7.374  0.1144 -0.0327 -0.1033
  988SSM    C2B12040   0.299   8.520   6.923  0.2012 -0.1323  0.0313
  988SSM    C3B12041   0.445   8.478   6.459 -0.1029  0.0692  0.0957
  988SSM    C4B12042   0.439   8.420   6.001 -0.0713  0.0500  0.0798
  989SSM    NC312043  18.346  19.102   7.799  0.0421 -0.0058  0.2802
  989SSM    PO412044  18.477  19.476   7.794 -0.0657  0.2005  0.0082
  989SSM    OH112045  18.318  19.571   7.453  0.1472  0.0154  0.0052
  989SSM    AM212046  18.287  19.297   7.373 -0.2197  0.1409  0.3094
  989SSM    T1A12047  18.299  19.645   7.098  0.0814 -0.1651 -0.3337
  989SSM    C2A12048  18.285  19.911   6.754  0.0396 -0.0799 -0.1437
  989SSM    C3A12049  18.261  19.664   6.362 -0.0066  0.1332  0.0362
  989SSM    C4A12050  18.567  19.551   5.969  0.0261  0.2325  0.1458
  989SSM    C1B12051  18.131  18.988   7.208  0.1818  0.0208 -0.2815
  989SSM    C2B12052  17.999  18.768   6.744 -0.2618  0.0642  0.0282
  989SSM    C3B12053  17.819  18.591   6.384 -0.3485  0.0198  0.0227
  989SSM    C4B12054  17.838  18.400   5.989 -0.2377 -0.1909  0.2024
  990SSM    NC312055  12.121  18.113   7.329  0.1827  0.0413  0.0643
  990SSM    PO412056  12.388  18.254   7.579  0.0545 -0.0793 -0.4941
  990SSM    OH112057  12.545  18.297   7.258 -0.0918  0.0544  0.4347
  990SSM    AM212058  12.354  18.515   7.169 -0.2939 -0.3566  0.3585
  990SSM    T1A12059  12.639  18.263   6.916  0.2074 -0.0575 -0.3224
  990SSM    C2A12060  12.603  18.174   6.522  0.0026 -0.1332 -0.2598
  990SSM    C3A12061  12.623  18.108   6.011  0.0606  0.1464  0.1413
  990SSM    C4A12062  12.692  17.894   5.588  0.0309 -0.2213  0.1138
  990SSM    C1B12063  12.147  18.784   7.001 -0.1600  0.1606 -0.0633
  990SSM    C2B12064  12.026  18.991   6.578  0.1627 -0.4238 -0.0460
  990SSM    C3B12065  12.022  19.141   6.127  0.2016 -0.0587  0.4889
  990SSM    C4B12066  12.012  19.402   5.748 -0.1575 -0.2390  0.0154
  991SSM    NC312067  23.428   6.792   8.340 -0.3588  0.3170  0.1283
  991SSM    PO412068  23.714   6.786   8.041 -0.0322  0.1120 -0.0214
  991SSM    OH112069  23.751   6.679   7.705  0.0840 -0.3086  0.0432
  991SSM    AM212070  23.463   6.754   7.624 -0.2825 -0.0858  0.0769
  991SSM    T1A12071  23.835   6.894   7.411 -0.0318  0.3793 -0.5085
  991SSM    C2A12072  23.971   7.063   7.078  0.1575 -0.0531 -0.0786
  991SSM    C3A12073  24.233   7.099   6.710 -0.0612  0.0357  0.1923
  991SSM    C4A12074  24.493   7.125   6.318  0.0280  0.3818 -0.0216
  991SSM    C1B12075  23.095   6.667   7.353  0.0208 -0.2542  0.0355
  991SSM    C2B12076  22.898   6.452   6.910  0.1444  0.2866 -0.3604
  991SSM    C3B12077  22.643   6.154   6.617 -0.1109  0.0237 -0.0646
  991SSM    C4B12078  22.387   5.777   6.410 -0.3987  0.4706  0.1942
  992SSM    NC312079  25.845  27.059   7.586 -0.2722 -0.4568  0.0193
  992SSM    PO412080  25.539  27.035   7.814  0.0023 -0.0227 -0.0189
  992SSM    OH112081  25.372  26.874   7.525  0.0444 -0.2943  0.0440
  992SSM    AM212082  25.431  27.125   7.342 -0.1344 -0.1666  0.2673
  992SSM    T1A12083  25.327  26.685   7.250  0.2873 -0.1640  0.1887
  992SSM    C2A12084  25.203  26.426   6.921  0.0077 -0.0845  0.2840
  992SSM    C3A12085  25.278  26.387   6.458 -0.2425 -0.1279 -0.4162
  992SSM    C4A12086  25.262  26.472   5.993 -0.1515 -0.3499  0.3089
  992SSM    C1B12087  25.480  27.198   7.056 -0.3694 -0.0574  0.0271
  992SSM    C2B12088  25.495  27.227   6.574 -0.2082 -0.1096  0.0395
  992SSM    C3B12089  25.637  27.279   6.102 -0.7026  0.0270  0.1852
  992SSM    C4B12090  25.612  27.207   5.579  0.0853 -0.1197  0.1394
  993SSM    NC312091   5.463   7.058   7.474  0.1841 -0.2371 -0.4442
  993SSM    PO412092   5.836   7.001   7.477 -0.1155  0.0305 -0.0998
  993SSM    OH112093   5.828   7.352   7.333 -0.5785  0.1537  0.1699
  993SSM    AM212094   5.792   7.272   7.047 -0.1723 -0.0156  0.1199
  993SSM    T1A12095   5.621   7.606   7.271 -0.0039 -0.4109 -0.1597
  993SSM    C2A12096   5.478   7.686   6.928  0.1147  0.1476  0.2904
  993SSM    C3A12097   5.407   7.902   6.524  0.0818  0.3079  0.1442
  993SSM    C4A12098   5.486   7.999   6.015  0.2878 -0.0432 -0.1991
  993SSM    C1B12099   5.568   7.235   6.737 -0.2609 -0.2110  0.0555
  993SSM    C2B12100   5.399   7.121   6.295  0.0900  0.1922  0.1989
  993SSM    C3B12101   5.294   7.244   5.825  0.1546  0.0728 -0.0578
  993SSM    C4B12102   4.892   7.313   5.594 -0.3408 -0.0641 -0.0487
  994SSM    NC312103   7.217  16.738   7.456 -0.1043  0.2425  0.2203
  994SSM    PO412104   7.547  16.503   7.550  0.0783 -0.2100 -0.0824
  994SSM    OH112105   7.544  16.322   7.245  0.0460  0.1049 -0.1417
  994SSM    AM212106   7.427  16.521   7.054  0.1379  0.1939 -0.1327
  994SSM    T1A12107   7.636  16.147   6.969  0.1266 -0.1432  0.3621
  994SSM    C2A12108   7.783  15.967   6.680 -0.0213  0.2762 -0.1560
  994SSM    C3A12109   7.791  15.983   6.158 -0.1849  0.0124 -0.1264
  994SSM    C4A12110   7.720  15.777   5.716  0.2746 -0.2580 -0.1317
  994SSM    C1B12111   7.110  16.698   6.933  0.1897  0.4032 -0.1163
  994SSM    C2B12112   6.906  16.680   6.458 -0.3418  0.1467 -0.0607
  994SSM    C3B12113   6.828  16.793   6.008  0.1079  0.1412  0.2228
  994SSM    C4B12114   7.085  16.914   5.542 -0.3219 -0.2000 -0.2903
  995SSM    NC312115  17.831   6.460   7.610 -0.0358  0.0184  0.1201
  995SSM    PO412116  17.781   6.810   7.454 -0.1087  0.2536  0.1694
  995SSM    OH112117  17.930   6.799   7.137 -0.2142 -0.0189 -0.2549
  995SSM    AM212118  17.902   7.077   7.032 -0.2432  0.2026  0.1108
  995SSM    T1A12119  17.980   6.669   6.823 -0.0862 -0.0999  0.1467
  995SSM    C2A12120  17.803   6.513   6.515  0.2117  0.0956  0.0709
  995SSM    C3A12121  17.732   6.621   6.012  0.2740 -0.2760  0.2087
  995SSM    C4A12122  17.691   6.654   5.563  0.1298  0.1210  0.1626
  995SSM    C1B12123  17.887   7.209   6.707 -0.1729  0.0254  0.0862
  995SSM    C2B12124  17.843   7.423   6.183  0.0823  0.1816  0.0283
  995SSM    C3B12125  17.911   7.580   5.739 -0.1509 -0.2057  0.1208
  995SSM    C4B12126  18.221   7.600   5.282  0.2636 -0.0559 -0.3413
  996SSM    NC312127   2.023  15.796   7.665 -0.0066 -0.2172 -0.2469
  996SSM    PO412128   2.005  16.183   7.637 -0.0302  0.2624  0.0740
  996SSM    OH112129   2.234  16.408   7.399  0.1283  0.0585 -0.0390
  996SSM    AM212130   1.967  16.426   7.245 -0.0510 -0.1101  0.1143
  996SSM    T1A12131   2.346  16.468   7.075  0.1226 -0.4006 -0.0285
  996SSM    C2A12132   2.503  16.573   6.717 -0.0313  0.2956  0.1961
  996SSM    C3A12133   2.408  16.608   6.240  0.2253 -0.0672  0.2076
  996SSM    C4A12134   2.656  16.720   5.837  0.1866 -0.0357  0.2464
  996SSM    C1B12135   1.975  16.626   6.938 -0.1915  0.0607  0.0026
  996SSM    C2B12136   1.939  16.613   6.466  0.1762  0.0071  0.0022
  996SSM    C3B12137   1.995  16.724   5.956 -0.1415 -0.0023  0.0140
  996SSM    C4B12138   2.190  16.684   5.532  0.1654 -0.0587  0.2356
  997SSM    NC312139  23.611  25.974   7.439 -0.0330  0.1827 -0.0758
  997SSM    PO412140  23.847  26.237   7.311 -0.0246 -0.2594 -0.0115
  997SSM    OH112141  23.861  26.187   6.942 -0.3575  0.0923 -0.0232
  997SSM    AM212142  23.734  26.456   6.870  0.0169  0.2125  0.0438
  997SSM    T1A12143  23.953  26.130   6.636 -0.0398  0.0238 -0.0307
  997SSM    C2A12144  23.986  26.114   6.233  0.2032 -0.2381 -0.1008
  997SSM    C3A12145  24.000  26.016   5.705 -0.0036  0.3452 -0.2211
  997SSM    C4A12146  23.699  25.860   5.321 -0.1545  0.0925 -0.0098
  997SSM    C1B12147  23.791  26.532   6.515  0.2139 -0.0706 -0.0259
  997SSM    C2B12148  23.810  26.548   5.996  0.2921  0.2715 -0.0901
  997SSM    C3B12149  23.781  26.441   5.590  0.2180 -0.0791 -0.2564
  997SSM    C4B12150  24.010  26.326   5.208  0.0851  0.0654  0.1503
  998SSM    NC312151   4.247  20.663   7.962  0.2166  0.0256 -0.1392
  998SSM    PO412152   4.121  20.981   7.779 -0.2345 -0.1833  0.2585
  998SSM    OH112153   4.034  20.752   7.481  0.1020 -0.2138  0.0432
  998SSM    AM212154   3.925  20.993   7.341 -0.3418  0.1845  0.0421
  998SSM    T1A12155   4.167  20.635   7.184 -0.2614 -0.1022 -0.0435
  998SSM    C2A12156   4.237  20.537   6.774  0.2504  0.1611 -0.2751
  998SSM    C3A12157   4.201  20.348   6.334  0.1271  0.2901 -0.0712
  998SSM    C4A12158   4.526  20.109   6.034  0.1905 -0.0939  0.3498
  998SSM    C1B12159   3.990  21.181   6.948  0.2454 -0.0368 -0.0405
  998SSM    C2B12160   3.835  21.373   6.451 -0.2151  0.1696 -0.2078
  998SSM    C3B12161   3.698  21.620   6.092 -0.1428 -0.1364 -0.3147
  998SSM    C4B12162   3.530  21.371   5.712 -0.1733 -0.1480  0.3008
  999SSM    NC312163  10.147  11.083   7.801 -0.4499 -0.2168 -0.0876
  999SSM    PO412164  10.407  11.241   7.578  0.1708 -0.2336 -0.1031
  999SSM    OH112165  10.372  11.398   7.241  0.0909 -0.3339  0.0588
  999SSM    AM212166  10.471  11.153   7.115  0.4423 -0.0158  0.1458
  999SSM    T1A12167  10.430  11.598   6.975 -0.0357  0.0905 -0.0604
  999SSM    C2A12168  10.608  11.787   6.698 -0.1025  0.2172 -0.0008
  999SSM    C3A12169  10.696  11.849   6.242 -0.2214 -0.0732 -0.3407
  999SSM    C4A12170  10.887  12.126   5.821 -0.1112 -0.2718 -0.2052
  999SSM    C1B12171  10.726  11.084   6.824  0.0008 -0.0471 -0.0837
  999SSM    C2B12172  10.728  10.947   6.326 -0.1926  0.0723 -0.0228
  999SSM    C3B12173  10.621  10.950   5.863  0.2046  0.0993 -0.4081
  999SSM    C4B12174  10.677  10.844   5.422  0.1552  0.0480 -0.1217
 1000SSM    NC312175   5.239   2.165   7.834  0.0928 -0.0618  0.0901
 1000SSM    PO412176   4.876   2.219   7.732  0.2869  0.1041  0.2933
 1000SSM    OH112177   4.961   2.013   7.468  0.1019 -0.0069 -0.0220
 1000SSM    AM212178   4.697   1.929   7.356 -0.2750 -0.3235  0.1274
 1000SSM    T1A12179   5.046   2.003   7.122  0.1385 -0.1263 -0.2222
 1000SSM    C2A12180   4.889   2.039   6.758 -0.0201 -0.1820 -0.0389
 1000SSM    C3A12181   4.904   2.131   6.249  0.1140  0.1716  0.0728
 1000SSM    C4A12182   4.657   2.393   5.850  0.0524 -0.0667  0.2816
 1000SSM    C1B12183   4.430   2.019   7.064 -0.1763 -0.1524 -0.2029
 1000SSM    C2B12184   4.443   2.024   6.585 -0.0381 -0.1109  0.0578
 1000SSM    C3B12185   4.443   1.947   6.073  0.1686 -0.0339 -0.1055
 1000SSM    C4B12186   4.214   1.819   5.729  0.0751  0.0975  0.3040
 1001SSM    NC312187  18.434  24.383   7.449 -0.3768 -0.1046 -0.2510
 1001SSM    PO412188  18.764  24.329   7.652 -0.2694 -0.0422  0.2798
 1001SSM    OH112189  18.911  24.331   7.375 -0.2646  0.0438  0.1519
 1001SSM    AM212190  19.225  24.278   7.438 -0.0296  0.0192  0.0671
 1001SSM    T1A12191  19.024  24.373   7.051  0.0851 -0.3081 -0.3610
 1001SSM    C2A12192  19.130  24.376   6.655  0.2422  0.1409  0.1246
 1001SSM    C3A12193  19.328  24.278   6.154  0.2989 -0.1710 -0.2711
 1001SSM    C4A12194  19.512  24.314   5.683  0.1853  0.4002  0.1881
 1001SSM    C1B12195  19.481  24.208   7.083 -0.0754  0.2189 -0.0204
 1001SSM    C2B12196  19.716  24.161   6.569  0.1923 -0.0076  0.2407
 1001SSM    C3B12197  19.811  24.390   6.100 -0.1099 -0.1761  0.1726
 1001SSM    C4B12198  19.928  24.686   5.824 -0.0259 -0.0966  0.0022
 1002SSM    NC312199  13.639   8.767   8.437  0.1360  0.0813 -0.0575
 1002SSM    PO412200  13.574   9.128   8.272  0.0438 -0.0735  0.0956
 1002SSM    OH112201  13.764   9.349   8.064 -0.1314 -0.1427 -0.1667
 1002SSM    AM212202  13.875   9.184   7.846  0.1892  0.1055  0.3234
 1002SSM    T1A12203  13.755   9.572   7.778 -0.1658 -0.1536 -0.1374
 1002SSM    C2A12204  13.598   9.554   7.388 -0.0890  0.1725  0.0899
 1002SSM    C3A12205  13.580   9.248   6.988 -0.0248 -0.0353  0.0057
 1002SSM    C4A12206  13.371   8.930   6.659  0.1240  0.3740  0.2498
 1002SSM    C1B12207  13.841   9.027   7.479 -0.2562  0.0100 -0.2122
 1002SSM    C2B12208  13.865   8.833   6.952  0.2815  0.2834  0.0620
 1002SSM    C3B12209  13.885   8.677   6.482  0.0338 -0.3002  0.0781
 1002SSM    C4B12210  14.115   8.502   6.113  0.0372 -0.0664 -0.0852
 1003SSM    NC312211  18.751   6.708   7.122 -0.1144 -0.0864  0.0652
 1003SSM    PO412212  18.385   6.841   6.981 -0.0741  0.0028 -0.1361
 1003SSM    OH112213  18.485   6.838   6.618 -0.1005 -0.2276  0.2325
 1003SSM    AM212214  18.199   6.904   6.545  0.0332 -0.2117  0.2797
 1003SSM    T1A12215  18.609   6.947   6.309  0.1940  0.4886 -0.0315
 1003SSM    C2A12216  18.702   6.963   5.952 -0.0697 -0.1372 -0.1400
 1003SSM    C3A12217  18.729   6.812   5.572  0.3153  0.0537 -0.1033
 1003SSM    C4A12218  18.764   6.771   5.098 -0.0543 -0.0061  0.0494
 1003SSM    C1B12219  18.032   6.985   6.226  0.0169 -0.2272  0.3131
 1003SSM    C2B12220  17.927   7.058   5.781  0.1673 -0.2080 -0.0614
 1003SSM    C3B12221  17.823   7.066   5.315  0.0211 -0.2554 -0.2899
 1003SSM    C4B12222  17.382   7.191   5.166 -0.0187  0.1198 -0.1604
 1004SSM    NC312223  20.724  17.642   7.004 -0.0664  0.0025  0.0884
 1004SSM    PO412224  21.033  17.886   6.968  0.1444  0.0031  0.0532
 1004SSM    OH112225  20.843  18.045   6.704  0.0084  0.2781  0.0942
 1004SSM    AM212226  20.707  17.815   6.619 -0.1641 -0.4540 -0.2343
 1004SSM    T1A12227  20.804  18.163   6.385  0.0706  0.4711  0.2223
 1004SSM    C2A12228  20.633  18.363   6.059 -0.1752  0.3740  0.2244
 1004SSM    C3A12229  20.385  18.328   5.605 -0.4533  0.0389  0.2209
 1004SSM    C4A12230  20.352  18.363   5.145 -0.0945  0.0128 -0.1410
 1004SSM    C1B12231  20.460  17.713   6.329 -0.3771  0.0255 -0.1248
 1004SSM    C2B12232  20.505  17.466   5.832 -0.0945  0.0018 -0.3691
 1004SSM    C3B12233  20.716  17.548   5.394  0.1070  0.0826  0.3132
 1004SSM    C4B12234  21.052  17.826   5.095  0.1482 -0.0740 -0.1460
 1005SSM    NC312235  14.652  15.716   7.713  0.1578  0.0041 -0.0430
 1005SSM    PO412236  14.257  15.621   7.765  0.0779  0.2347 -0.0991
 1005SSM    OH112237  14.123  15.500   7.423 -0.0215  0.2230 -0.2235
 1005SSM    AM212238  14.178  15.779   7.346  0.0533 -0.1360 -0.0926
 1005SSM    T1A12239  14.013  15.400   7.106 -0.0501  0.0238 -0.3198
 1005SSM    C2A12240  14.056  15.413   6.736 -0.4135 -0.1681  0.0809
 1005SSM    C3A12241  14.120  15.449   6.249  0.2150  0.2219  0.2384
 1005SSM    C4A12242  14.373  15.382   5.795  0.1582  0.1717 -0.1179
 1005SSM    C1B12243  14.113  16.029   7.053 -0.1670 -0.0669  0.3194
 1005SSM    C2B12244  14.200  15.891   6.553 -0.2144 -0.1944  0.0007
 1005SSM    C3B12245  14.440  15.889   6.163  0.4164 -0.0631  0.4653
 1005SSM    C4B12246  14.560  16.027   5.685  0.1893  0.3274  0.2034
 1006SSM    NC312247  24.573  26.971   7.513  0.1372 -0.2426 -0.0545
 1006SSM    PO412248  24.421  27.317   7.575 -0.0712 -0.3390  0.0928
 1006SSM    OH112249  24.471  27.365   7.232 -0.0468  0.0858 -0.1115
 1006SSM    AM212250  24.787  27.393   7.242  0.3209 -0.3614  0.1026
 1006SSM    T1A12251  24.540  27.432   6.919  0.0432  0.5199  0.3150
 1006SSM    C2A12252  24.623  27.387   6.544  0.2478  0.0132  0.1994
 1006SSM    C3A12253  24.549  27.416   6.076 -0.1573  0.0800 -0.0679
 1006SSM    C4A12254  24.333  27.460   5.662 -0.2168  0.2685  0.1180
 1006SSM    C1B12255  25.126  27.499   7.089  0.1881 -0.0750  0.3770
 1006SSM    C2B12256  25.159  27.599   6.577 -0.3541 -0.1551  0.1887
 1006SSM    C3B12257  25.216  27.487   6.132 -0.1664 -0.1863 -0.3689
 1006SSM    C4B12258  25.224  27.468   5.633 -0.5210  0.0711  0.1445
 1007SSM    NC312259  17.703  13.664   7.518 -0.2513  0.1190 -0.2211
 1007SSM    PO412260  18.093  13.558   7.428 -0.2757  0.3350  0.2487
 1007SSM    OH112261  18.102  13.570   7.051 -0.1369  0.4439  0.0425
 1007SSM    AM212262  17.871  13.371   7.042  0.1935  0.0172 -0.0169
 1007SSM    T1A12263  18.154  13.607   6.725 -0.0688  0.1522  0.1577
 1007SSM    C2A12264  18.192  13.787   6.360  0.1043  0.0066 -0.1425
 1007SSM    C3A12265  18.079  13.837   5.935  0.1611  0.1119 -0.1418
 1007SSM    C4A12266  17.934  13.845   5.428  0.2659  0.5119  0.1555
 1007SSM    C1B12267  17.636  13.166   6.855 -0.1650  0.2591  0.2283
 1007SSM    C2B12268  17.446  13.030   6.389  0.0658 -0.1332 -0.1988
 1007SSM    C3B12269  17.501  13.157   5.926  0.0937  0.1056  0.0331
 1007SSM    C4B12270  17.717  12.982   5.493  0.0522  0.0599 -0.2830
 1008SSM    NC312271  19.594  25.614   7.462 -0.2272  0.1416 -0.1154
 1008SSM    PO412272  19.566  25.983   7.591  0.0315 -0.1974 -0.2055
 1008SSM    OH112273  19.771  26.250   7.398 -0.0298  0.0808  0.0105
 1008SSM    AM212274  19.850  26.019   7.194 -0.1146 -0.1830 -0.1855
 1008SSM    T1A12275  19.744  26.450   7.101 -0.0743  0.1216 -0.2166
 1008SSM    C2A12276  19.666  26.409   6.692 -0.1710  0.1196 -0.1111
 1008SSM    C3A12277  19.470  26.279   6.313 -0.1873 -0.1953  0.4026
 1008SSM    C4A12278  19.267  26.189   5.846 -0.0566  0.2338  0.3415
 1008SSM    C1B12279  19.852  25.905   6.811  0.0028  0.0103  0.1788
 1008SSM    C2B12280  19.820  25.930   6.315 -0.1037  0.1656 -0.1007
 1008SSM    C3B12281  19.732  25.952   5.906  0.2784 -0.2500  0.1222
 1008SSM    C4B12282  19.772  25.974   5.471  0.1022 -0.0406  0.0454
 1009SSM    NC312283  20.663  22.580   8.132 -0.1738 -0.0336  0.1204
 1009SSM    PO412284  20.528  22.908   7.920 -0.0861  0.0185 -0.0403
 1009SSM    OH112285  20.172  23.097   7.847  0.0173  0.4088 -0.0608
 1009SSM    AM212286  20.321  23.262   7.648 -0.0936 -0.1441  0.3564
 1009SSM    T1A12287  19.859  23.065   7.674  0.2724 -0.0539  0.2243
 1009SSM    C2A12288  19.805  23.057   7.267 -0.1052  0.1401  0.0767
 1009SSM    C3A12289  19.405  22.881   7.034 -0.0460  0.2494  0.3500
 1009SSM    C4A12290  19.330  22.581   6.696 -0.0245  0.1447  0.1219
 1009SSM    C1B12291  20.125  23.502   7.384  0.1365  0.0660 -0.3443
 1009SSM    C2B12292  19.989  23.418   6.932  0.0188 -0.0344  0.0866
 1009SSM    C3B12293  19.732  23.135   6.615  0.4250 -0.1679 -0.1719
 1009SSM    C4B12294  19.678  22.795   6.245 -0.2342 -0.1172 -0.3687
 1010SSM    NC312295  25.006   2.115   7.916  0.0360  0.2773  0.3963
 1010SSM    PO412296  25.301   2.185   8.162  0.2714  0.1985 -0.0231
 1010SSM    OH112297  25.474   2.227   7.860  0.0677 -0.1102  0.2781
 1010SSM    AM212298  25.399   1.917   7.798 -0.2138 -0.0787  0.2230
 1010SSM    T1A12299  25.652   2.211   7.556 -0.3341  0.0773 -0.0235
 1010SSM    C2A12300  25.896   2.292   7.245  0.2731 -0.2868  0.2949
 1010SSM    C3A12301  26.166   2.182   6.832  0.1064 -0.1020  0.0920
 1010SSM    C4A12302  26.270   2.145   6.366  0.1460 -0.2435  0.2866
 1010SSM    C1B12303  25.265   1.821   7.491  0.0758 -0.4199 -0.1626
 1010SSM    C2B12304  25.098   1.474   7.099  0.2978 -0.0804  0.1766
 1010SSM    C3B12305  25.009   1.340   6.595 -0.3640  0.0178 -0.3947
 1010SSM    C4B12306  24.823   1.283   6.091 -0.1716 -0.1575 -0.4855
 1011SSM    NC312307   7.775  18.596   7.312 -0.2560  0.0076 -0.2780
 1011SSM    PO412308   7.902  18.234   7.369 -0.3755 -0.0324 -0.2327
 1011SSM    OH112309   7.940  18.036   7.079  0.1416  0.0004  0.4162
 1011SSM    AM212310   8.199  18.156   6.967  0.1735  0.0525 -0.1819
 1011SSM    T1A12311   7.900  18.008   6.721  0.0061 -0.1301 -0.1161
 1011SSM    C2A12312   7.813  17.897   6.362  0.0272  0.3179  0.1905
 1011SSM    C3A12313   7.773  17.768   5.898  0.0691  0.0530  0.0483
 1011SSM    C4A12314   7.796  17.712   5.397  0.1680 -0.0256 -0.3844
 1011SSM    C1B12315   8.309  18.522   6.726  0.1399  0.2356 -0.1014
 1011SSM    C2B12316   8.296  18.517   6.231  0.1146 -0.1548  0.0601
 1011SSM    C3B12317   8.149  18.605   5.845 -0.1019 -0.1304  0.3507
 1011SSM    C4B12318   8.151  18.491   5.331  0.2445  0.0158 -0.0442
 1012SSM    NC312319  21.190   0.655   7.507 -0.1794  0.0790 -0.1359
 1012SSM    PO412320  21.489   0.601   7.730  0.0271 -0.3646 -0.2674
 1012SSM    OH112321  21.777   0.696   7.501 -0.1318  0.1074  0.3432
 1012SSM    AM212322  21.636   0.910   7.332 -0.3878  0.0494 -0.0690
 1012SSM    T1A12323  21.997   0.638   7.232 -0.3049 -0.2437  0.2805
 1012SSM    C2A12324  21.852   0.597   6.871 -0.1081  0.1140  0.0505
 1012SSM    C3A12325  21.817   0.847   6.451  0.1378  0.2230 -0.0529
 1012SSM    C4A12326  21.863   1.169   6.052  0.1859  0.0467 -0.0656
 1012SSM    C1B12327  21.568   1.026   6.892 -0.2110  0.0427 -0.0064
 1012SSM    C2B12328  21.539   1.279   6.396 -0.1747 -0.0013  0.2696
 1012SSM    C3B12329  21.396   1.357   5.907 -0.0403  0.0699  0.1351
 1012SSM    C4B12330  21.142   1.617   5.645 -0.1723  0.2232 -0.0513
 1013SSM    NC312331  13.416  16.438   8.182 -0.0220  0.0343 -0.1047
 1013SSM    PO412332  13.233  16.750   8.009 -0.3259 -0.1768 -0.4098
 1013SSM    OH112333  13.397  16.780   7.656 -0.2005  0.1849  0.2573
 1013SSM    AM212334  13.145  16.635   7.539 -0.2843  0.2777 -0.1997
 1013SSM    T1A12335  13.521  16.725   7.345  0.1729  0.1490  0.1915
 1013SSM    C2A12336  13.408  16.593   6.962 -0.0209 -0.3907  0.1839
 1013SSM    C3A12337  13.303  16.738   6.527 -0.1995  0.0087  0.1087
 1013SSM    C4A12338  13.445  16.704   6.069  0.0130  0.0087  0.0695
 1013SSM    C1B12339  12.908  16.589   7.232 -0.1305  0.0758 -0.0945
 1013SSM    C2B12340  12.793  16.559   6.769  0.2733  0.1742 -0.0767
 1013SSM    C3B12341  12.857  16.496   6.328 -0.0442 -0.0727 -0.1513
 1013SSM    C4B12342  13.068  16.480   5.880  0.0100  0.1916  0.0503
 1014SSM    NC312343   9.731   3.469   7.704 -0.0209 -0.1564 -0.2218
 1014SSM    PO412344   9.564   3.707   7.452  0.1279 -0.4883 -0.2812
 1014SSM    OH112345   9.319   3.594   7.163  0.1963 -0.3235  0.2570
 1014SSM    AM212346   9.562   3.662   6.992 -0.4329 -0.0272 -0.0735
 1014SSM    T1A12347   9.129   3.590   6.862  0.6228  0.4288 -0.3765
 1014SSM    C2A12348   8.730   3.701   6.785  0.1584 -0.0241 -0.1408
 1014SSM    C3A12349   8.472   3.820   6.465 -0.1068 -0.0248  0.1781
 1014SSM    C4A12350   8.256   4.010   6.040 -0.2888  0.0950 -0.0349
 1014SSM    C1B12351   9.908   3.515   6.678  0.3203 -0.4342 -0.0654
 1014SSM    C2B12352   9.934   3.581   6.216  0.3162 -0.0302  0.0551
 1014SSM    C3B12353  10.048   3.467   5.781 -0.0295  0.0293  0.1416
 1014SSM    C4B12354   9.942   3.594   5.311  0.2095  0.1228 -0.0106
 1015SSM    NC312355  10.355  12.649   7.986 -0.1863  0.2862  0.0436
 1015SSM    PO412356  10.168  12.657   7.630 -0.0239  0.3104  0.2495
 1015SSM    OH112357  10.078  12.891   7.349 -0.0089  0.0708  0.4339
 1015SSM    AM212358  10.188  12.685   7.162  0.1862  0.1000  0.3346
 1015SSM    T1A12359  10.191  13.182   7.180  0.1396 -0.0997  0.1545
 1015SSM    C2A12360  10.268  13.164   6.763 -0.0562  0.1891  0.0310
 1015SSM    C3A12361  10.339  13.198   6.236  0.0103  0.1319 -0.1661
 1015SSM    C4A12362  10.524  13.123   5.796 -0.0175 -0.2331  0.1008
 1015SSM    C1B12363  10.309  12.625   6.786  0.0778  0.0301 -0.2323
 1015SSM    C2B12364  10.294  12.651   6.315 -0.2306  0.1584  0.2733
 1015SSM    C3B12365  10.291  12.726   5.879  0.5926 -0.1555 -0.1511
 1015SSM    C4B12366  10.051  12.656   5.432 -0.2165 -0.1533  0.2910
 1016SSM    NC312367  21.291  14.250   7.390 -0.1940 -0.1672  0.3344
 1016SSM    PO412368  21.425  14.228   7.008  0.2334 -0.0434 -0.2907
 1016SSM    OH112369  21.284  13.918   6.811 -0.1740 -0.1737 -0.3052
 1016SSM    AM212370  21.007  14.086   6.797 -0.2752  0.6579  0.0452
 1016SSM    T1A12371  21.166  13.771   6.537  0.1593 -0.0787  0.1041
 1016SSM    C2A12372  20.882  13.810   6.311  0.2361 -0.1303  0.0955
 1016SSM    C3A12373  21.075  13.858   5.897 -0.1843 -0.2091 -0.0964
 1016SSM    C4A12374  21.539  13.956   5.851 -0.1701 -0.0901 -0.3220
 1016SSM    C1B12375  20.848  14.291   6.501  0.3417  0.4358  0.1447
 1016SSM    C2B12376  20.880  14.355   6.002 -0.0809  0.0579  0.3355
 1016SSM    C3B12377  21.116  14.222   5.587 -0.2790 -0.1881 -0.0481
 1016SSM    C4B12378  21.158  14.155   5.145 -0.0590  0.0358 -0.3025
 1017SSM    NC312379  17.277   1.116   7.981 -0.1676  0.1243  0.2763
 1017SSM    PO412380  17.697   1.085   7.953  0.0046  0.1095  0.1836
 1017SSM    OH112381  17.771   1.012   7.603 -0.0292  0.5681 -0.0605
 1017SSM    AM212382  17.483   0.971   7.525 -0.1524  0.1055 -0.1082
 1017SSM    T1A12383  17.932   0.998   7.300 -0.2628  0.0623 -0.0345
 1017SSM    C2A12384  18.014   0.800   6.929 -0.0107 -0.0239 -0.1183
 1017SSM    C3A12385  17.931   0.782   6.455 -0.3355  0.0794 -0.0928
 1017SSM    C4A12386  17.760   0.953   6.044 -0.0547  0.3693 -0.0661
 1017SSM    C1B12387  17.208   1.053   7.196 -0.0665 -0.1392  0.1472
 1017SSM    C2B12388  16.999   1.201   6.762 -0.1794  0.0266  0.0921
 1017SSM    C3B12389  16.614   1.285   6.503 -0.1760  0.0307  0.0635
 1017SSM    C4B12390  16.321   1.301   6.147  0.0293  0.0822  0.0357
 1018SSM    NC312391   7.007  18.050   7.874  0.0410  0.1109  0.3202
 1018SSM    PO412392   7.111  17.889   7.489  0.0299 -0.0703  0.1096
 1018SSM    OH112393   7.406  17.705   7.376  0.0197  0.2242  0.1244
 1018SSM    AM212394   7.233  17.453   7.347  0.0873  0.2463 -0.0945
 1018SSM    T1A12395   7.430  17.670   7.020 -0.3781 -0.3693 -0.1621
 1018SSM    C2A12396   7.454  17.565   6.631 -0.2293  0.1216 -0.1067
 1018SSM    C3A12397   7.423  17.476   6.164 -0.3428  0.2595  0.0851
 1018SSM    C4A12398   7.131  17.256   5.902 -0.0108  0.3390  0.0499
 1018SSM    C1B12399   7.287  17.268   6.994 -0.0143 -0.1569 -0.0024
 1018SSM    C2B12400   7.306  17.092   6.490  0.0032 -0.1915 -0.4694
 1018SSM    C3B12401   7.387  16.938   6.097  0.0059 -0.1784  0.0967
 1018SSM    C4B12402   7.785  16.801   5.761 -0.3960  0.1707 -0.1362
 1019SSM    NC312403  16.509   5.925   7.830 -0.1050 -0.1261 -0.1820
 1019SSM    PO412404  16.561   5.624   7.549  0.1602  0.0112 -0.1205
 1019SSM    OH112405  16.719   5.722   7.218 -0.1654  0.1131 -0.2518
 1019SSM    AM212406  16.460   5.783   7.106 -0.0129  0.4996 -0.2061
 1019SSM    T1A12407  16.850   5.712   6.889 -0.0636  0.1075  0.0724
 1019SSM    C2A12408  16.721   5.693   6.542  0.3380 -0.0894 -0.1688
 1019SSM    C3A12409  16.568   5.651   6.126  0.1717  0.2394 -0.4157
 1019SSM    C4A12410  16.621   5.911   5.734 -0.0344 -0.1006  0.0584
 1019SSM    C1B12411  16.306   5.894   6.788  0.0573  0.0119  0.1112
 1019SSM    C2B12412  15.999   6.175   6.581 -0.0139 -0.0197  0.2370
 1019SSM    C3B12413  15.611   6.411   6.465 -0.0229 -0.0308 -0.0395
 1019SSM    C4B12414  15.091   6.294   6.374  0.0553 -0.0727  0.2367
 1020SSM    NC312415  23.164  26.808   7.357  0.0757  0.0405 -0.1156
 1020SSM    PO412416  23.432  26.869   7.056 -0.0956  0.0853  0.0966
 1020SSM    OH112417  23.609  27.196   6.938  0.2722  0.2019  0.2552
 1020SSM    AM212418  23.620  27.021   6.668 -0.1000 -0.4000  0.0848
 1020SSM    T1A12419  23.685  27.423   6.686 -0.1364  0.1462 -0.1184
 1020SSM    C2A12420  23.842  27.550   6.317 -0.0220  0.2744 -0.1076
 1020SSM    C3A12421  23.779  27.499   5.834 -0.2035  0.0156 -0.1912
 1020SSM    C4A12422  23.939  27.500   5.397  0.1011  0.2900 -0.0093
 1020SSM    C1B12423  23.650  27.091   6.268 -0.0676  0.1058 -0.2487
 1020SSM    C2B12424  23.659  26.951   5.770 -0.0466 -0.2226  0.4456
 1020SSM    C3B12425  23.675  27.070   5.298  0.2970  0.1954  0.1524
 1020SSM    C4B12426  23.840  27.193   4.846  0.3953 -0.0022  0.1761
 1021SSM    NC312427   4.008   6.003   7.452  0.0757  0.1967 -0.1194
 1021SSM    PO412428   3.691   6.152   7.468  0.2730 -0.0089 -0.1944
 1021SSM    OH112429   3.417   6.077   7.238  0.1103  0.1049  0.3334
 1021SSM    AM212430   3.456   6.372   7.129 -0.0727  0.5395  0.1067
 1021SSM    T1A12431   3.156   6.092   6.992  0.0662 -0.2066  0.2101
 1021SSM    C2A12432   2.902   6.163   6.693  0.2590  0.1239  0.2321
 1021SSM    C3A12433   2.457   6.184   6.466 -0.1041 -0.1266  0.0236
 1021SSM    C4A12434   2.229   6.132   6.050 -0.1258  0.2518  0.2685
 1021SSM    C1B12435   3.415   6.529   6.783  0.4034 -0.0008  0.5081
 1021SSM    C2B12436   3.055   6.549   6.433 -0.0525  0.0324  0.1014
 1021SSM    C3B12437   3.062   6.139   6.172 -0.0693  0.0330 -0.0007
 1021SSM    C4B12438   3.202   5.894   5.748  0.1706 -0.3126  0.1074
 1022SSM    NC312439  26.423   6.371   7.686 -0.2497 -0.1655  0.1658
 1022SSM    PO412440  26.299   6.045   7.840  0.0209 -0.0268  0.1561
 1022SSM    OH112441  26.264   5.756   7.583  0.0469 -0.0178  0.0806
 1022SSM    AM212442  26.494   5.865   7.409 -0.0970  0.2813  0.2369
 1022SSM    T1A12443  26.163   5.603   7.282  0.1879 -0.1451 -0.3730
 1022SSM    C2A12444  26.077   5.535   6.886 -0.3058 -0.0471 -0.3668
 1022SSM    C3A12445  26.377   5.446   6.482 -0.0991 -0.3742 -0.2814
 1022SSM    C4A12446  26.679   5.497   6.137 -0.0686  0.1479  0.0784
 1022SSM    C1B12447  26.605   5.648   7.069 -0.1349  0.1487  0.0795
 1022SSM    C2B12448  26.753   5.685   6.596 -0.0371 -0.2199 -0.3509
 1022SSM    C3B12449  27.139   5.644   6.336  0.2348  0.1177 -0.4607
 1022SSM    C4B12450  27.509   5.930   6.225  0.2420 -0.1667 -0.1124
 1023SSM    NC312451   4.237  13.789   7.662  0.1836 -0.2674 -0.1335
 1023SSM    PO412452   4.331  13.656   7.307  0.2210 -0.0581  0.2257
 1023SSM    OH112453   4.527  13.785   6.986 -0.3064  0.2222 -0.3308
 1023SSM    AM212454   4.320  13.676   6.803  0.3639 -0.1662 -0.1674
 1023SSM    T1A12455   4.782  13.736   6.753 -0.0161  0.0508 -0.4236
 1023SSM    C2A12456   4.959  13.708   6.400 -0.0308 -0.0049 -0.1126
 1023SSM    C3A12457   4.916  13.765   5.962 -0.1450  0.3403 -0.1390
 1023SSM    C4A12458   4.667  13.948   5.526  0.0061 -0.2465 -0.0344
 1023SSM    C1B12459   4.008  13.787   6.573 -0.1106  0.1505 -0.3880
 1023SSM    C2B12460   4.070  13.958   6.113  0.1811  0.3189 -0.0357
 1023SSM    C3B12461   3.785  14.142   5.737 -0.2064  0.1057 -0.2122
 1023SSM    C4B12462   3.492  14.365   5.482  0.0602  0.1545 -0.1432
 1024SSM    NC312463   8.178  23.470   7.968 -0.2105  0.0918 -0.0502
 1024SSM    PO412464   8.036  23.842   7.940 -0.1921  0.0993 -0.1417
 1024SSM    OH112465   8.086  23.962   7.585  0.0063 -0.0900  0.1258
 1024SSM    AM212466   8.351  24.091   7.629  0.1210  0.1343 -0.1053
 1024SSM    T1A12467   8.097  23.956   7.244  0.4182 -0.2973  0.1804
 1024SSM    C2A12468   8.200  24.001   6.836 -0.1799  0.1751  0.0191
 1024SSM    C3A12469   8.263  24.091   6.349  0.0285  0.1819 -0.0904
 1024SSM    C4A12470   8.356  24.397   5.945 -0.2297  0.0965 -0.2620
 1024SSM    C1B12471   8.611  24.240   7.427  0.0660  0.0733 -0.0271
 1024SSM    C2B12472   9.035  24.107   7.180 -0.2037 -0.1309  0.2551
 1024SSM    C3B12473   9.341  24.091   6.798  0.1731 -0.1760 -0.1103
 1024SSM    C4B12474   9.267  24.160   6.338 -0.0942 -0.0436 -0.1393
 1025SSM    NC312475  24.795  15.384   7.971 -0.1192 -0.0643 -0.1493
 1025SSM    PO412476  24.952  15.111   7.713  0.2430 -0.1312 -0.1560
 1025SSM    OH112477  24.977  15.087   7.353  0.3318  0.4797 -0.1370
 1025SSM    AM212478  24.986  15.369   7.271  0.2587 -0.0120 -0.1351
 1025SSM    T1A12479  24.925  15.027   7.015 -0.2502  0.0020 -0.0987
 1025SSM    C2A12480  24.994  14.846   6.654 -0.0881  0.0374  0.0199
 1025SSM    C3A12481  25.080  14.758   6.195  0.0421  0.2632 -0.0899
 1025SSM    C4A12482  25.053  14.699   5.675 -0.3440  0.0581 -0.2809
 1025SSM    C1B12483  24.924  15.546   6.926 -0.1103 -0.0163 -0.0321
 1025SSM    C2B12484  25.082  15.342   6.498 -0.0955 -0.0869 -0.0157
 1025SSM    C3B12485  25.536  15.300   6.252  0.2571  0.1218 -0.3054
 1025SSM    C4B12486  25.847  15.535   5.902 -0.0715 -0.1073  0.0923
 1026SSM    NC312487  19.478  19.062   7.988  0.3170  0.2119  0.2658
 1026SSM    PO412488  19.127  19.054   7.847  0.1406  0.1666  0.3042
 1026SSM    OH112489  19.123  18.816   7.540 -0.0794  0.2490 -0.2887
 1026SSM    AM212490  19.099  19.056   7.358 -0.2226 -0.3988 -0.0293
 1026SSM    T1A12491  19.050  18.614   7.290  0.0460 -0.4750  0.1449
 1026SSM    C2A12492  18.978  18.330   7.051 -0.0837  0.2057  0.3490
 1026SSM    C3A12493  18.732  18.038   6.789  0.2052 -0.0338  0.0414
 1026SSM    C4A12494  18.478  17.968   6.410  0.3563  0.0502 -0.0116
 1026SSM    C1B12495  18.952  19.369   7.143  0.1010  0.0419 -0.3935
 1026SSM    C2B12496  18.644  19.510   6.813  0.0607 -0.0247 -0.0979
 1026SSM    C3B12497  18.182  19.285   6.744 -0.0118 -0.1882 -0.2959
 1026SSM    C4B12498  17.854  19.117   6.420 -0.0356 -0.3452 -0.0559
 1027SSM    NC312499  11.878  10.813   8.322  0.1977  0.0209 -0.0866
 1027SSM    PO412500  11.742  10.508   8.133  0.1500  0.3226 -0.1983
 1027SSM    OH112501  11.857  10.633   7.794 -0.2387  0.2734  0.0310
 1027SSM    AM212502  11.903  10.346   7.711 -0.0714  0.0232  0.1078
 1027SSM    T1A12503  11.962  10.712   7.488 -0.0749 -0.0150  0.0100
 1027SSM    C2A12504  11.928  10.725   7.060  0.0625 -0.0940 -0.1127
 1027SSM    C3A12505  12.007  10.641   6.575 -0.0675 -0.0959  0.1896
 1027SSM    C4A12506  12.118  10.495   6.133  0.0385  0.0236 -0.2327
 1027SSM    C1B12507  12.128  10.268   7.361  0.1396 -0.2024  0.2385
 1027SSM    C2B12508  12.278   9.942   6.940  0.1207  0.0746  0.1796
 1027SSM    C3B12509  12.493   9.693   6.595 -0.1867 -0.3112 -0.0959
 1027SSM    C4B12510  12.847   9.725   6.289  0.0201  0.0592 -0.0468
 1028SSM    NC312511  16.635  22.081   8.029  0.1633 -0.3231  0.2373
 1028SSM    PO412512  16.928  22.213   7.801  0.0347 -0.0071 -0.1034
 1028SSM    OH112513  16.780  21.990   7.531 -0.2097  0.0365 -0.2654
 1028SSM    AM212514  16.840  22.191   7.314  0.0632  0.2877  0.3880
 1028SSM    T1A12515  16.741  21.810   7.209 -0.1251 -0.0132 -0.3332
 1028SSM    C2A12516  16.731  21.790   6.843  0.0802 -0.3551 -0.1161
 1028SSM    C3A12517  16.569  21.686   6.444  0.0144 -0.2514  0.1533
 1028SSM    C4A12518  16.348  21.854   6.011  0.0960 -0.0243  0.1228
 1028SSM    C1B12519  16.899  22.263   6.941  0.1604  0.1686  0.1746
 1028SSM    C2B12520  16.824  22.495   6.531  0.0545  0.1799 -0.2862
 1028SSM    C3B12521  16.710  22.707   6.118 -0.0632 -0.2321  0.1433
 1028SSM    C4B12522  16.362  22.864   5.783 -0.2711  0.2473  0.0565
 1029SSM    NC312523  24.588  25.612   7.335 -0.2791  0.0352  0.0105
 1029SSM    PO412524  24.830  25.868   7.540 -0.1246  0.0811 -0.1092
 1029SSM    OH112525  25.035  25.921   7.233  0.1782 -0.2924  0.1973
 1029SSM    AM212526  24.882  26.168   7.161 -0.2314 -0.1657 -0.1843
 1029SSM    T1A12527  25.178  25.920   6.919  0.0732  0.0381  0.4090
 1029SSM    C2A12528  25.318  25.829   6.568  0.0301 -0.5322  0.0841
 1029SSM    C3A12529  25.531  25.757   6.126 -0.2607 -0.2012 -0.0821
 1029SSM    C4A12530  25.636  25.750   5.608 -0.0251 -0.2016  0.0266
 1029SSM    C1B12531  24.666  26.332   6.925 -0.0518 -0.0179  0.1513
 1029SSM    C2B12532  24.743  26.475   6.433  0.1455  0.0189 -0.1400
 1029SSM    C3B12533  24.770  26.408   5.939 -0.3712  0.2564 -0.0123
 1029SSM    C4B12534  24.951  26.557   5.470 -0.3149  0.1257 -0.1051
 1030SSM    NC312535   4.879   6.664   7.288  0.2315 -0.4957  0.2322
 1030SSM    PO412536   4.533   6.827   7.236  0.0789  0.1336  0.1653
 1030SSM    OH112537   4.539   6.891   6.864  0.1779 -0.0690 -0.0735
 1030SSM    AM212538   4.833   6.843   6.816  0.0818  0.0297  0.1266
 1030SSM    T1A12539   4.517   6.838   6.517 -0.1150  0.1275  0.2167
 1030SSM    C2A12540   4.547   7.008   6.132  0.2772 -0.1924 -0.1166
 1030SSM    C3A12541   4.350   7.018   5.728 -0.2481 -0.3846 -0.0450
 1030SSM    C4A12542   4.255   7.056   5.268  0.0065 -0.2013 -0.2731
 1030SSM    C1B12543   5.039   6.830   6.530  0.4780  0.0262  0.1034
 1030SSM    C2B12544   4.987   6.818   6.001  0.2367  0.0145  0.0512
 1030SSM    C3B12545   4.944   6.820   5.513  0.2453  0.1942  0.0974
 1030SSM    C4B12546   5.095   6.677   5.048  0.1368  0.0355 -0.0218
 1031SSM    NC312547  10.729   7.357   7.633  0.2934  0.0285  0.0180
 1031SSM    PO412548  11.011   7.408   7.392 -0.4230  0.1242  0.2743
 1031SSM    OH112549  10.945   7.635   7.073  0.1841  0.0581 -0.0655
 1031SSM    AM212550  11.034   7.405   6.916  0.0423  0.0072 -0.3286
 1031SSM    T1A12551  10.910   7.830   6.822 -0.2860 -0.1940 -0.1269
 1031SSM    C2A12552  11.052   7.805   6.452 -0.1482 -0.0359  0.2063
 1031SSM    C3A12553  11.087   7.665   5.954 -0.3297 -0.3481 -0.2348
 1031SSM    C4A12554  11.025   7.676   5.445  0.1537  0.1773  0.0827
 1031SSM    C1B12555  11.114   7.295   6.584 -0.2694 -0.1119 -0.0094
 1031SSM    C2B12556  11.228   7.167   6.092  0.1783 -0.0341  0.3272
 1031SSM    C3B12557  11.381   7.336   5.712 -0.1708  0.0852 -0.4256
 1031SSM    C4B12558  11.808   7.563   5.548 -0.1840  0.1149 -0.1275
 1032SSM    NC312559  22.218  25.860   7.961  0.1146 -0.0084  0.4004
 1032SSM    PO412560  22.347  25.566   7.631  0.3333 -0.3097 -0.0380
 1032SSM    OH112561  22.255  25.335   7.373 -0.0171 -0.1631  0.0283
 1032SSM    AM212562  22.096  25.532   7.174 -0.0698  0.1598  0.3355
 1032SSM    T1A12563  22.371  25.178   7.084  0.0723 -0.0082  0.1769
 1032SSM    C2A12564  22.366  25.154   6.657 -0.1222  0.0176  0.1593
 1032SSM    C3A12565  22.490  25.109   6.251  0.0357 -0.2235  0.1716
 1032SSM    C4A12566  22.429  25.115   5.740 -0.3049 -0.2513  0.2375
 1032SSM    C1B12567  22.141  25.701   6.851 -0.3176  0.0338 -0.0844
 1032SSM    C2B12568  22.046  25.506   6.425  0.2564  0.1914  0.4282
 1032SSM    C3B12569  22.066  25.422   5.953  0.3779 -0.1032  0.1725
 1032SSM    C4B12570  21.950  25.301   5.499  0.0057  0.0163  0.1259
 1033SSM    NC312571  20.552   4.069   7.326 -0.1644  0.0898  0.0316
 1033SSM    PO412572  20.694   3.699   7.222  0.2398  0.2022  0.0689
 1033SSM    OH112573  20.382   3.710   6.968  0.0313  0.1663 -0.3133
 1033SSM    AM212574  20.497   3.961   6.870  0.0896 -0.1444 -0.3338
 1033SSM    T1A12575  20.229   3.687   6.672 -0.1859 -0.2371  0.1323
 1033SSM    C2A12576  20.362   3.692   6.321 -0.1225  0.1508 -0.1546
 1033SSM    C3A12577  20.492   3.858   5.899 -0.2620 -0.0460 -0.3568
 1033SSM    C4A12578  20.433   3.856   5.425  0.0984  0.2998  0.2744
 1033SSM    C1B12579  20.496   4.133   6.604 -0.0191 -0.0865  0.1392
 1033SSM    C2B12580  20.705   4.236   6.127  0.2124 -0.1810  0.1776
 1033SSM    C3B12581  20.784   4.261   5.644  0.1973 -0.2474 -0.4184
 1033SSM    C4B12582  20.724   4.152   5.114 -0.3178 -0.2364  0.0382
 1034SSM    NC312583  26.661   0.879   7.743  0.2320 -0.0170 -0.0923
 1034SSM    PO412584  26.243   0.914   7.626  0.0367  0.0036 -0.0163
 1034SSM    OH112585  26.216   0.728   7.296  0.0435  0.0185 -0.2185
 1034SSM    AM212586  26.070   0.938   7.158 -0.3681  0.0128  0.1045
 1034SSM    T1A12587  26.238   0.590   6.999 -0.0425 -0.2348 -0.1900
 1034SSM    C2A12588  26.171   0.574   6.615  0.0151  0.1185  0.1482
 1034SSM    C3A12589  26.157   0.701   6.117  0.1146 -0.1799 -0.4672
 1034SSM    C4A12590  26.352   0.746   5.678 -0.0239 -0.0170 -0.2552
 1034SSM    C1B12591  25.952   1.099   6.805 -0.2347 -0.1221  0.0900
 1034SSM    C2B12592  25.909   1.220   6.286  0.2627 -0.2296  0.2679
 1034SSM    C3B12593  25.705   1.163   5.815 -0.0454 -0.0254 -0.0084
 1034SSM    C4B12594  25.389   1.125   5.462 -0.0515 -0.1724  0.1753
 1035SSM    NC312595  10.301  11.858   7.290  0.0710 -0.2513 -0.1711
 1035SSM    PO412596  10.656  11.840   7.460 -0.0776 -0.0883  0.2442
 1035SSM    OH112597  10.873  11.814   7.153  0.1044  0.0344  0.0761
 1035SSM    AM212598  10.689  12.004   7.030 -0.4655  0.0492  0.5409
 1035SSM    T1A12599  10.901  11.594   6.909  0.2123 -0.2550 -0.0600
 1035SSM    C2A12600  11.033  11.494   6.579  0.3612  0.0144 -0.0543
 1035SSM    C3A12601  11.258  11.533   6.188 -0.0165 -0.1830  0.0530
 1035SSM    C4A12602  11.545  11.207   5.928  0.1923 -0.0528  0.1880
 1035SSM    C1B12603  10.782  12.316   6.775  0.1829 -0.1045  0.0960
 1035SSM    C2B12604  10.814  12.543   6.320  0.0002  0.0933 -0.1878
 1035SSM    C3B12605  10.819  12.725   5.841  0.0869  0.0449  0.0030
 1035SSM    C4B12606  10.599  12.644   5.411 -0.2680  0.2337 -0.1401
 1036SSM    NC312607  18.133   0.161   7.749 -0.1950 -0.2704  0.2691
 1036SSM    PO412608  17.770   0.194   7.818  0.0526 -0.0092 -0.0999
 1036SSM    OH112609  17.703   0.085   7.489 -0.0440  0.2889  0.3365
 1036SSM    AM212610  17.916   0.224   7.346 -0.1044  0.0318  0.1408
 1036SSM    T1A12611  17.796  -0.144   7.239 -0.1817  0.0624  0.1904
 1036SSM    C2A12612  17.698  -0.158   6.831  0.1134  0.1973  0.0261
 1036SSM    C3A12613  17.892   0.033   6.469 -0.0985  0.2861 -0.2720
 1036SSM    C4A12614  18.048   0.135   6.063  0.4207  0.1894 -0.0932
 1036SSM    C1B12615  18.064   0.219   6.980 -0.1161 -0.2883  0.0452
 1036SSM    C2B12616  18.220   0.430   6.535 -0.0713  0.1031  0.2783
 1036SSM    C3B12617  18.393   0.488   6.141  0.0527 -0.1378 -0.2766
 1036SSM    C4B12618  18.750   0.616   5.825 -0.0579 -0.1000  0.2409
 1037SSM    NC312619   3.723   9.340   7.814 -0.0766  0.3583 -0.5562
 1037SSM    PO412620   3.863   8.962   7.795  0.0848  0.2271 -0.0945
 1037SSM    OH112621   3.762   8.595   7.648 -0.2747  0.1315  0.0340
 1037SSM    AM212622   3.678   8.759   7.418  0.1957 -0.1911 -0.2731
 1037SSM    T1A12623   3.551   8.351   7.517 -0.1291 -0.0731  0.2141
 1037SSM    C2A12624   3.378   8.261   7.136  0.0805 -0.3183 -0.0442
 1037SSM    C3A12625   3.232   8.232   6.651  0.0676 -0.0239 -0.0423
 1037SSM    C4A12626   3.072   8.134   6.158  0.2467 -0.0798 -0.0331
 1037SSM    C1B12627   3.774   8.758   7.008 -0.4367  0.0634  0.0582
 1037SSM    C2B12628   3.537   8.601   6.509  0.3153 -0.1363 -0.0054
 1037SSM    C3B12629   3.412   8.496   6.050 -0.2296 -0.1422 -0.5007
 1037SSM    C4B12630   3.180   8.524   5.605 -0.2591  0.2359  0.1793
 1038SSM    NC312631  13.077   4.225   8.355 -0.3688  0.1680  0.0739
 1038SSM    PO412632  13.303   4.377   8.064  0.2545  0.0223  0.0455
 1038SSM    OH112633  13.307   4.255   7.704  0.1821 -0.1835  0.2336
 1038SSM    AM212634  13.098   4.464   7.607  0.0767 -0.1504  0.2862
 1038SSM    T1A12635  13.369   4.260   7.349  0.3278 -0.2283 -0.0183
 1038SSM    C2A12636  13.332   4.260   6.941  0.3333  0.2372  0.2610
 1038SSM    C3A12637  13.461   4.225   6.515  0.0556  0.3354 -0.1640
 1038SSM    C4A12638  13.388   4.118   6.083  0.1498  0.1692 -0.0387
 1038SSM    C1B12639  12.829   4.456   7.261  0.1412 -0.0192  0.1341
 1038SSM    C2B12640  12.920   4.462   6.724 -0.0024  0.0410 -0.4843
 1038SSM    C3B12641  12.952   4.390   6.226 -0.1000 -0.1008 -0.2389
 1038SSM    C4B12642  13.012   4.265   5.739 -0.0469  0.0611  0.1663
 1039SSM    NC312643  13.690  26.305   8.736 -0.3368  0.1441  0.2681
 1039SSM    PO412644  13.512  26.083   8.467 -0.0338 -0.2127  0.1110
 1039SSM    OH112645  13.305  26.073   8.176  0.4137 -0.0004  0.5276
 1039SSM    AM212646  13.425  26.330   8.036  0.4483  0.0064 -0.0405
 1039SSM    T1A12647  13.276  26.005   7.838 -0.0279 -0.1675  0.4197
 1039SSM    C2A12648  13.210  26.017   7.421 -0.1633  0.0578 -0.2635
 1039SSM    C3A12649  13.153  26.188   7.083 -0.0093 -0.3103  0.1241
 1039SSM    C4A12650  12.825  26.511   6.828 -0.0528 -0.0057 -0.2504
 1039SSM    C1B12651  13.606  26.318   7.705 -0.0525  0.2367  0.1023
 1039SSM    C2B12652  13.686  26.316   7.233 -0.1662  0.0646  0.2702
 1039SSM    C3B12653  13.787  26.495   6.775 -0.2002  0.0783 -0.2781
 1039SSM    C4B12654  13.711  26.315   6.336  0.1355  0.1500  0.2191
 1040SSM    NC312655  15.434   6.601   7.477  0.2882 -0.0717  0.2120
 1040SSM    PO412656  15.471   6.263   7.302  0.3876 -0.2736  0.1519
 1040SSM    OH112657  15.353   6.473   6.980  0.0715 -0.1130  0.0455
 1040SSM    AM212658  15.354   6.212   6.825  0.0499 -0.0892  0.3116
 1040SSM    T1A12659  15.204   6.620   6.722 -0.3107 -0.0060 -0.1761
 1040SSM    C2A12660  15.227   6.852   6.365  0.0743  0.0003  0.1272
 1040SSM    C3A12661  15.140   7.179   6.058 -0.4404  0.0052 -0.2524
 1040SSM    C4A12662  15.201   7.218   5.585  0.0965  0.0679 -0.3194
 1040SSM    C1B12663  15.440   5.943   6.547 -0.0652 -0.3267  0.0318
 1040SSM    C2B12664  15.674   5.932   6.066 -0.1340 -0.0498 -0.5479
 1040SSM    C3B12665  16.029   5.994   5.752  0.1604  0.3266  0.1343
 1040SSM    C4B12666  16.105   5.976   5.276  0.0048 -0.2423  0.0361
 1041SSM    NC312667   2.512  19.973   8.086  0.1845 -0.2007 -0.0877
 1041SSM    PO412668   2.677  20.250   7.903 -0.0319  0.0116 -0.0418
 1041SSM    OH112669   2.836  20.143   7.576 -0.0773  0.1903 -0.5388
 1041SSM    AM212670   2.551  20.174   7.460  0.1013 -0.1907 -0.3264
 1041SSM    T1A12671   2.901  20.110   7.248 -0.2527  0.1486 -0.1880
 1041SSM    C2A12672   2.872  19.984   6.876  0.2003  0.2360  0.0777
 1041SSM    C3A12673   3.001  19.715   6.490  0.1294  0.1053 -0.0243
 1041SSM    C4A12674   3.143  19.790   6.037 -0.3892  0.1600  0.0216
 1041SSM    C1B12675   2.350  20.025   7.180  0.0479 -0.2463  0.0692
 1041SSM    C2B12676   2.401  20.014   6.675 -0.1161  0.2125 -0.0347
 1041SSM    C3B12677   2.226  20.025   6.272 -0.0199  0.2191 -0.4161
 1041SSM    C4B12678   2.015  20.003   5.793  0.0813 -0.1185 -0.1536
 1042SSM    NC312679   0.106   6.704   7.958  0.0943 -0.1203  0.3007
 1042SSM    PO412680   0.183   7.088   7.879  0.3226  0.3642 -0.1621
 1042SSM    OH112681   0.104   7.403   7.684  0.1303 -0.4355  0.1579
 1042SSM    AM212682   0.155   7.264   7.432 -0.0725  0.1588  0.2454
 1042SSM    T1A12683  -0.106   7.548   7.456 -0.2488  0.3334  0.0474
 1042SSM    C2A12684  -0.063   7.657   7.066 -0.2037  0.0153  0.1463
 1042SSM    C3A12685  -0.143   7.752   6.583 -0.0533  0.0012  0.1944
 1042SSM    C4A12686  -0.324   7.600   6.151 -0.2779  0.0398 -0.0161
 1042SSM    C1B12687   0.243   7.114   7.154  0.2213 -0.1317  0.2953
 1042SSM    C2B12688   0.376   6.993   6.707 -0.0381 -0.1265 -0.2282
 1042SSM    C3B12689   0.628   6.954   6.335  0.0102  0.1307 -0.0801
 1042SSM    C4B12690   0.957   6.927   5.867 -0.2966  0.0093 -0.2135
 1043SSM    NC312691  10.786  20.089   7.239  0.2714  0.0751  0.0776
 1043SSM    PO412692  10.404  20.152   7.304 -0.1068  0.0854 -0.0621
 1043SSM    OH112693  10.178  19.956   7.075  0.3497  0.3739 -0.0762
 1043SSM    AM212694  10.118  20.203   6.917  0.1644  0.0228 -0.2632
 1043SSM    T1A12695  10.059  19.793   6.791 -0.3083 -0.4155  0.2404
 1043SSM    C2A12696   9.933  19.810   6.449  0.2471 -0.0092 -0.0415
 1043SSM    C3A12697   9.899  19.852   6.036 -0.2329 -0.0543  0.2667
 1043SSM    C4A12698   9.934  19.759   5.491 -0.1137 -0.3796 -0.0038
 1043SSM    C1B12699   9.977  20.314   6.556  0.2550  0.0877 -0.0080
 1043SSM    C2B12700   9.913  20.356   6.067  0.0712 -0.0981  0.0774
 1043SSM    C3B12701  10.093  20.210   5.602  0.0264 -0.0529 -0.0944
 1043SSM    C4B12702  10.167  20.280   5.138  0.4265  0.0754 -0.0969
 1044SSM    NC312703   4.295  17.276   7.837  0.0895 -0.1027  0.0873
 1044SSM    PO412704   4.558  17.344   7.561 -0.1815  0.1403 -0.0327
 1044SSM    OH112705   4.426  17.186   7.268 -0.0474  0.0116  0.0724
 1044SSM    AM212706   4.656  17.272   7.114 -0.2335  0.0686 -0.0115
 1044SSM    T1A12707   4.258  17.054   7.013 -0.2918  0.1840  0.0025
 1044SSM    C2A12708   4.201  16.981   6.592  0.0279 -0.0670 -0.2318
 1044SSM    C3A12709   4.066  16.983   6.109 -0.1118  0.2631  0.0493
 1044SSM    C4A12710   3.788  16.543   6.136  0.0242 -0.1322 -0.0151
 1044SSM    C1B12711   4.692  17.194   6.736  0.1030 -0.0061  0.1477
 1044SSM    C2B12712   4.600  17.203   6.234 -0.1815  0.1444 -0.1610
 1044SSM    C3B12713   4.425  17.205   5.799 -0.0264 -0.1678 -0.0376
 1044SSM    C4B12714   4.278  17.376   5.374  0.2191  0.0736  0.0108
 1045SSM    NC312715  20.615   2.008   7.909  0.2406 -0.0213 -0.3545
 1045SSM    PO412716  21.012   2.076   7.978 -0.0601  0.1991 -0.2769
 1045SSM    OH112717  21.178   2.175   7.634 -0.0980  0.1201 -0.2629
 1045SSM    AM212718  20.929   2.102   7.474 -0.0518 -0.2043 -0.2242
 1045SSM    T1A12719  21.302   2.352   7.374  0.2116 -0.2368  0.5429
 1045SSM    C2A12720  21.343   2.232   7.004 -0.0631 -0.0509  0.2825
 1045SSM    C3A12721  21.382   2.190   6.481  0.1474 -0.2282 -0.0476
 1045SSM    C4A12722  21.351   2.055   6.045 -0.0696  0.3232 -0.1486
 1045SSM    C1B12723  20.682   2.083   7.186  0.2227  0.0066  0.1898
 1045SSM    C2B12724  20.419   2.082   6.777  0.0321 -0.1897  0.1004
 1045SSM    C3B12725  20.228   2.189   6.335 -0.2964 -0.2918 -0.0301
 1045SSM    C4B12726  20.213   2.148   5.859 -0.1859 -0.1592  0.1303
 1046SSM    NC312727  18.252   1.869   7.219  0.0140 -0.0176  0.1255
 1046SSM    PO412728  18.530   1.637   7.314  0.2845  0.4072  0.2389
 1046SSM    OH112729  18.791   1.529   7.068  0.0933  0.0840  0.0812
 1046SSM    AM212730  18.644   1.632   6.832 -0.3467  0.1526  0.0831
 1046SSM    T1A12731  19.074   1.396   6.936 -0.4388 -0.3062 -0.2867
 1046SSM    C2A12732  19.246   1.212   6.629  0.0300 -0.0860 -0.1704
 1046SSM    C3A12733  19.339   1.352   6.165  0.0260 -0.0456  0.1113
 1046SSM    C4A12734  19.309   1.399   5.716 -0.2437  0.0616 -0.2944
 1046SSM    C1B12735  18.296   1.556   6.646 -0.1254 -0.0617 -0.0051
 1046SSM    C2B12736  17.967   1.379   6.237  0.0236  0.0661 -0.1085
 1046SSM    C3B12737  17.805   1.760   5.882  0.1514  0.2217  0.1243
 1046SSM    C4B12738  17.524   2.178   5.688  0.0792  0.2879  0.0066
 1047SSM    NC312739  11.064   6.757   7.367 -0.0455 -0.2449 -0.1601
 1047SSM    PO412740  10.773   6.823   7.627  0.1533 -0.1984 -0.1113
 1047SSM    OH112741  10.535   7.025   7.434  0.2577 -0.0600 -0.4068
 1047SSM    AM212742  10.734   7.037   7.203 -0.2924 -0.1102  0.1366
 1047SSM    T1A12743  10.300   7.016   7.173 -0.1817 -0.1397 -0.0335
 1047SSM    C2A12744  10.414   6.914   6.829  0.0450 -0.0600  0.2549
 1047SSM    C3A12745  10.378   6.904   6.301 -0.2275 -0.2125  0.0505
 1047SSM    C4A12746  10.413   6.967   5.809 -0.2461  0.2768 -0.1002
 1047SSM    C1B12747  10.899   6.934   6.881 -0.0330 -0.0995 -0.0113
 1047SSM    C2B12748  10.894   6.883   6.356  0.1853  0.0394  0.2496
 1047SSM    C3B12749  10.907   6.852   5.883 -0.2004 -0.0416  0.0746
 1047SSM    C4B12750  11.187   6.930   5.476  0.0123 -0.2514  0.2328
 1048SSM    NC312751   2.763  15.605   8.148  0.0019 -0.4446  0.0029
 1048SSM    PO412752   2.489  15.787   7.961  0.4383 -0.0785 -0.3519
 1048SSM    OH112753   2.504  15.889   7.630 -0.2108  0.0441  0.2484
 1048SSM    AM212754   2.468  15.653   7.458 -0.0174  0.0722  0.5847
 1048SSM    T1A12755   2.335  16.024   7.355 -0.2959 -0.1834 -0.0620
 1048SSM    C2A12756   2.193  16.039   6.976  0.0074  0.0247 -0.1852
 1048SSM    C3A12757   2.048  16.116   6.497  0.3070 -0.0056  0.2531
 1048SSM    C4A12758   1.797  16.239   6.103 -0.0472  0.1739  0.3638
 1048SSM    C1B12759   2.565  15.753   7.053 -0.1299 -0.0415 -0.0505
 1048SSM    C2B12760   2.750  15.584   6.576  0.0616  0.3117  0.2162
 1048SSM    C3B12761   2.810  15.592   6.076  0.3171  0.1864  0.2941
 1048SSM    C4B12762   2.702  15.847   5.624  0.1729 -0.0329 -0.5664
 1049SSM    NC312763   8.596   2.192   7.298 -0.2072 -0.0858  0.0337
 1049SSM    PO412764   8.792   2.484   7.389 -0.0447 -0.0919 -0.2797
 1049SSM    OH112765   9.027   2.601   7.142 -0.0554  0.2437 -0.3466
 1049SSM    AM212766   8.816   2.640   6.907  0.1102 -0.2823 -0.0691
 1049SSM    T1A12767   9.253   2.602   6.890 -0.0038 -0.4127 -0.0058
 1049SSM    C2A12768   9.307   2.611   6.493 -0.0164 -0.0793  0.0997
 1049SSM    C3A12769   9.063   2.610   6.072  0.0731  0.1174 -0.4583
 1049SSM    C4A12770   8.818   2.610   5.643  0.1981 -0.2311  0.2780
 1049SSM    C1B12771   8.704   2.695   6.474  0.4457 -0.0497  0.0240
 1049SSM    C2B12772   8.471   2.634   6.000 -0.2865 -0.1985 -0.3603
 1049SSM    C3B12773   8.205   2.294   5.862 -0.0411  0.2129  0.0545
 1049SSM    C4B12774   8.137   1.886   6.025 -0.4192 -0.0865  0.3633
 1050SSM    NC312775   7.727   0.312   8.380  0.2527 -0.4122  0.3429
 1050SSM    PO412776   7.810   0.481   8.021  0.2322 -0.2251  0.2383
 1050SSM    OH112777   7.743   0.212   7.766 -0.0802  0.3172  0.0948
 1050SSM    AM212778   7.571   0.336   7.571  0.2068  0.1504  0.3804
 1050SSM    T1A12779   7.699  -0.085   7.579  0.3172  0.1617  0.0230
 1050SSM    C2A12780   7.719  -0.201   7.201  0.1295 -0.2223  0.3781
 1050SSM    C3A12781   7.447  -0.320   6.759 -0.0060  0.1201  0.0689
 1050SSM    C4A12782   7.356  -0.578   6.344  0.0384  0.4367  0.1181
 1050SSM    C1B12783   7.501   0.311   7.166  0.0807 -0.1688  0.1182
 1050SSM    C2B12784   7.524   0.203   6.658 -0.0041 -0.0873 -0.0584
 1050SSM    C3B12785   7.288  -0.063   6.279  0.0783  0.2547 -0.0242
 1050SSM    C4B12786   7.310  -0.315   5.822 -0.2790 -0.1120  0.0496
 1051SSM    NC312787  11.621   4.147   7.388  0.0748 -0.1563  0.2616
 1051SSM    PO412788  11.625   3.779   7.598 -0.0248 -0.0386 -0.0166
 1051SSM    OH112789  11.276   3.820   7.493  0.2822 -0.3723 -0.2603
 1051SSM    AM212790  11.368   3.822   7.197 -0.1993 -0.1990 -0.3760
 1051SSM    T1A12791  11.012   3.914   7.295  0.1621  0.1543 -0.1105
 1051SSM    C2A12792  10.786   4.065   7.001 -0.1296  0.3125 -0.1800
 1051SSM    C3A12793  10.764   3.968   6.539 -0.0617  0.2791 -0.0050
 1051SSM    C4A12794  10.833   3.959   6.077  0.4159  0.1741  0.1957
 1051SSM    C1B12795  11.283   3.985   6.834 -0.0835  0.0748  0.1847
 1051SSM    C2B12796  11.231   4.089   6.370  0.1402 -0.0807  0.1283
 1051SSM    C3B12797  11.435   4.044   5.924  0.0597 -0.3854  0.0401
 1051SSM    C4B12798  11.479   4.140   5.473 -0.1449  0.1586 -0.0803
 1052SSM    NC312799  27.456   4.056   8.468  0.0841  0.0542  0.1026
 1052SSM    PO412800  27.615   4.115   8.115  0.1462 -0.1719  0.3033
 1052SSM    OH112801  27.363   4.198   7.799  0.2031  0.1563  0.0968
 1052SSM    AM212802  27.560   4.079   7.621  0.2534  0.4997 -0.2380
 1052SSM    T1A12803  27.296   4.366   7.504 -0.1546 -0.0759  0.1430
 1052SSM    C2A12804  27.341   4.499   7.099 -0.0865 -0.1204 -0.3414
 1052SSM    C3A12805  27.297   4.377   6.680  0.0821 -0.1084 -0.1421
 1052SSM    C4A12806  27.218   4.360   6.194 -0.3183 -0.1662  0.2455
 1052SSM    C1B12807  27.708   4.199   7.186 -0.3515  0.1136 -0.3402
 1052SSM    C2B12808  27.671   4.100   6.635 -0.1152  0.2100 -0.3832
 1052SSM    C3B12809  27.742   4.068   6.156 -0.0214  0.1295  0.0158
 1052SSM    C4B12810  27.723   3.890   5.678 -0.0489  0.2654  0.2780
 1053SSM    NC312811   0.530  22.647   7.727 -0.4259 -0.3741  0.2324
 1053SSM    PO412812   0.162  22.659   7.561 -0.3271  0.1095  0.0944
 1053SSM    OH112813   0.248  22.663   7.198  0.2121  0.0631 -0.1073
 1053SSM    AM212814   0.199  22.370   7.162  0.1202  0.3129 -0.0734
 1053SSM    T1A12815   0.254  22.704   6.861  0.2262  0.0592  0.0029
 1053SSM    C2A12816   0.295  22.676   6.446 -0.1560  0.0980 -0.0228
 1053SSM    C3A12817   0.358  22.735   5.968 -0.1205 -0.1057  0.2347
 1053SSM    C4A12818   0.477  22.696   5.458 -0.1021 -0.0380 -0.0114
 1053SSM    C1B12819   0.169  22.226   6.765 -0.0835 -0.1392 -0.1171
 1053SSM    C2B12820   0.172  22.201   6.271 -0.3468 -0.2841  0.0747
 1053SSM    C3B12821   0.364  22.246   5.825  0.1673  0.0029 -0.0931
 1053SSM    C4B12822   0.734  22.285   5.588  0.3394 -0.1687 -0.0129
 1054SSM    NC312823  16.542  27.208   8.034 -0.2916  0.1428  0.0862
 1054SSM    PO412824  16.591  26.832   8.143  0.2085  0.0266  0.1922
 1054SSM    OH112825  16.629  26.670   7.792 -0.0481  0.1292 -0.1700
 1054SSM    AM212826  16.387  26.816   7.682 -0.2197 -0.2402 -0.2747
 1054SSM    T1A12827  16.575  26.547   7.492 -0.2179  0.4298  0.1224
 1054SSM    C2A12828  16.556  26.552   7.072 -0.1402  0.0346 -0.0589
 1054SSM    C3A12829  16.668  26.599   6.584  0.0142  0.1930 -0.1707
 1054SSM    C4A12830  16.786  26.494   6.100  0.0328 -0.2918  0.1561
 1054SSM    C1B12831  16.049  26.734   7.522  0.1056 -0.0605  0.2086
 1054SSM    C2B12832  15.946  26.642   7.032 -0.4887  0.1565 -0.3355
 1054SSM    C3B12833  15.758  26.765   6.556  0.0801  0.0379  0.3266
 1054SSM    C4B12834  15.818  26.872   6.037  0.1097 -0.0458 -0.0911
 1055SSM    NC312835   2.171  10.852   8.082  0.1691 -0.0699 -0.1495
 1055SSM    PO412836   2.263  10.954   7.721 -0.1041  0.1083  0.1982
 1055SSM    OH112837   2.068  10.925   7.390 -0.0560  0.2974  0.0227
 1055SSM    AM212838   2.278  11.090   7.230  0.0199  0.1674 -0.0196
 1055SSM    T1A12839   1.980  10.795   7.084  0.2379 -0.4441 -0.2839
 1055SSM    C2A12840   2.091  10.655   6.719 -0.5171 -0.0777 -0.3076
 1055SSM    C3A12841   2.266  10.275   6.529  0.2729  0.0169 -0.0454
 1055SSM    C4A12842   2.541   9.927   6.474  0.0096  0.1584 -0.2027
 1055SSM    C1B12843   2.412  11.067   6.855  0.0928 -0.0339 -0.2909
 1055SSM    C2B12844   2.432  11.070   6.307  0.0207  0.0731 -0.0457
 1055SSM    C3B12845   2.348  11.066   5.820  0.2150  0.2964  0.2099
 1055SSM    C4B12846   2.688  10.906   5.465 -0.1498  0.3730 -0.0611
 1056SSM    NC312847   7.297   5.022   7.626  0.2845 -0.3300  0.2015
 1056SSM    PO412848   7.616   4.842   7.459 -0.1509 -0.1421 -0.2262
 1056SSM    OH112849   7.584   4.657   7.187 -0.4104 -0.0874  0.3896
 1056SSM    AM212850   7.761   4.789   6.969 -0.3926 -0.3736  0.0697
 1056SSM    T1A12851   7.347   4.532   6.984  0.0719 -0.3028  0.0203
 1056SSM    C2A12852   7.274   4.522   6.561 -0.1456 -0.0487 -0.0713
 1056SSM    C3A12853   7.175   4.478   6.111  0.2345 -0.0243 -0.2068
 1056SSM    C4A12854   7.042   4.366   5.650 -0.2197  0.1112 -0.1772
 1056SSM    C1B12855   7.813   4.947   6.512  0.0324 -0.2582  0.1768
 1056SSM    C2B12856   7.817   5.032   5.936 -0.2820  0.1481 -0.1540
 1056SSM    C3B12857   7.807   4.872   5.541 -0.3454  0.1103  0.0308
 1056SSM    C4B12858   7.835   4.466   5.302  0.3491  0.4478 -0.2138
 1057SSM    NC312859  20.979  12.448   7.275 -0.0694  0.2654  0.1140
 1057SSM    PO412860  20.688  12.739   7.250  0.1049  0.4185  0.0187
 1057SSM    OH112861  20.573  12.531   6.922  0.1770  0.0206  0.0984
 1057SSM    AM212862  20.700  12.738   6.752  0.0553  0.0895 -0.1731
 1057SSM    T1A12863  20.468  12.452   6.577  0.2666  0.0072  0.0714
 1057SSM    C2A12864  20.595  12.206   6.253 -0.2541 -0.4516 -0.1171
 1057SSM    C3A12865  20.561  12.331   5.759 -0.0208 -0.2050 -0.1949
 1057SSM    C4A12866  20.751  12.138   5.427  0.0862  0.0344  0.0896
 1057SSM    C1B12867  20.785  12.821   6.407  0.1127  0.0876  0.0288
 1057SSM    C2B12868  20.947  13.098   5.988 -0.1687  0.2288  0.2961
 1057SSM    C3B12869  21.012  13.392   5.633  0.0237  0.2393  0.1410
 1057SSM    C4B12870  21.013  13.364   5.150  0.0740 -0.0153 -0.1842
 1058CHOL   ROH12871  11.375  12.356   6.955 -0.0884  0.1611  0.0277
 1058CHOL    R112872  11.214  12.509   6.585 -0.0175  0.0715 -0.0408
 1058CHOL    R212873  11.547  12.451   6.667 -0.0343  0.0767  0.0317
 1058CHOL    R312874  11.329  12.588   6.181  0.0558 -0.0409 -0.0423
 1058CHOL    R412875  11.618  12.455   6.365  0.0177 -0.0063  0.0426
 1058CHOL    R512876  11.443  12.231   6.603 -0.0339  0.0648  0.0721
 1058CHOL    R612877  11.477  12.356   6.153  0.0493 -0.0555  0.0444
 1058CHOL    C112878  11.649  12.581   5.935  0.0977 -0.1213  0.0140
 1058CHOL    C212879  11.756  12.724   5.546 -0.0252 -0.0567  0.1312
 1059CHOL   ROH12880   7.135  23.542   4.314  0.1377  0.0685 -0.1333
 1059CHOL    R112881   7.233  23.654   4.719  0.0783  0.0621 -0.1171
 1059CHOL    R212882   7.342  23.376   4.541  0.0853  0.0522 -0.0973
 1059CHOL    R312883   7.507  23.560   5.033  0.0170  0.0403 -0.0699
 1059CHOL    R412884   7.575  23.343   4.743  0.0482  0.0335 -0.0575
 1059CHOL    R512885   7.481  23.574   4.469  0.1141  0.0402 -0.0746
 1059CHOL    R612886   7.726  23.535   4.865  0.0436  0.0213 -0.0326
 1059CHOL    C112887   7.805  23.304   5.127 -0.0203  0.0157 -0.0181
 1059CHOL    C212888   8.048  23.281   5.449 -0.0274  0.0347  0.0323
 1060CHOL   ROH12889  27.610   6.157   4.342 -0.0201  0.0039 -0.0609
 1060CHOL    R112890  27.316   6.167   4.658 -0.0047 -0.0896 -0.0433
 1060CHOL    R212891  27.663   6.161   4.687  0.0007  0.0623 -0.0646
 1060CHOL    R312892  27.284   6.235   5.079 -0.0066 -0.0598 -0.0482
 1060CHOL    R412893  27.637   6.263   4.978 -0.0246  0.0814 -0.0735
 1060CHOL    R512894  27.594   6.398   4.636 -0.1045  0.0278 -0.0849
 1060CHOL    R612895  27.463   6.446   5.082 -0.0967  0.0178 -0.0815
 1060CHOL    C112896  27.508   6.303   5.407 -0.0145  0.0707 -0.0695
 1060CHOL    C212897  27.493   6.362   5.856  0.1486 -0.0425  0.0991
 1061CHOL   ROH12898   9.913  24.348   6.396  0.2365 -0.0361  0.1613
 1061CHOL    R112899   9.775  24.043   6.123  0.0901  0.0824  0.1008
 1061CHOL    R212900  10.098  24.168   6.161  0.1129  0.0588 -0.0118
 1061CHOL    R312901   9.925  23.740   5.862 -0.0499  0.1897 -0.1068
 1061CHOL    R412902  10.208  23.917   6.018  0.0343  0.1170 -0.1763
 1061CHOL    R512903  10.057  24.000   6.345  0.2042 -0.0186 -0.0614
 1061CHOL    R612904  10.125  23.657   6.035  0.0381  0.1112 -0.2439
 1061CHOL    C112905  10.270  23.590   5.715 -0.1276  0.2439 -0.3484
 1061CHOL    C212906  10.195  23.478   5.298 -0.2259 -0.0789  0.2396
 1062CHOL   ROH12907   2.797   2.632   7.370 -0.1252  0.0132 -0.1289
 1062CHOL    R112908   2.487   2.523   7.091 -0.1878  0.1936 -0.1312
 1062CHOL    R212909   2.803   2.651   7.022 -0.0841 -0.0560 -0.1323
 1062CHOL    R312910   2.426   2.453   6.674 -0.2089  0.1613 -0.1227
 1062CHOL    R412911   2.776   2.550   6.731 -0.1387 -0.0911 -0.1152
 1062CHOL    R512912   2.827   2.404   7.068 -0.2731 -0.0674 -0.0840
 1062CHOL    R612913   2.665   2.318   6.638 -0.3061 -0.0260 -0.0799
 1062CHOL    C112914   2.615   2.472   6.319 -0.1669 -0.0477 -0.1125
 1062CHOL    C212915   2.388   2.449   5.913 -0.0949 -0.2557 -0.1871
 1063CHOL   ROH12916   4.521   8.835   3.693  0.3691 -0.0905  0.1364
 1063CHOL    R112917   4.573   9.055   4.061  0.0572  0.1224  0.0576
 1063CHOL    R212918   4.311   8.842   3.972  0.2634 -0.1374  0.0590
 1063CHOL    R312919   4.417   9.077   4.459 -0.1026  0.1745 -0.0072
 1063CHOL    R412920   4.235   8.818   4.272  0.1781 -0.0650  0.0435
 1063CHOL    R512921   4.505   8.700   4.048  0.3574  0.0573  0.1929
 1063CHOL    R612922   4.396   8.803   4.491  0.1149  0.1694  0.1089
 1063CHOL    C112923   4.129   8.924   4.695 -0.0596  0.0410 -0.0405
 1063CHOL    C212924   4.047   9.128   5.059  0.5564  0.1294  0.2877
 1064CHOL   ROH12925   5.757  13.291   3.599  0.0092  0.0439  0.0111
 1064CHOL    R112926   5.775  13.032   3.943  0.1452  0.0250 -0.0096
 1064CHOL    R212927   5.836  13.374   3.928 -0.0535  0.0632  0.0215
 1064CHOL    R312928   5.797  13.048   4.370  0.1169  0.0026 -0.0072
 1064CHOL    R412929   5.797  13.391   4.235 -0.0769  0.0150  0.0211
 1064CHOL    R512930   5.586  13.340   3.935 -0.0347 -0.0833  0.0077
 1064CHOL    R612931   5.618  13.258   4.394 -0.0075 -0.1027  0.0024
 1064CHOL    C112932   5.833  13.309   4.675 -0.0485 -0.0004  0.0160
 1064CHOL    C212933   6.034  13.171   5.032 -0.1597  0.1014 -0.1845
 1065CHOL   ROH12934  20.217   8.831   4.066 -0.0946 -0.1601 -0.1334
 1065CHOL    R112935  20.068   8.939   4.456 -0.1099  0.0117 -0.1861
 1065CHOL    R212936  19.991   8.657   4.267  0.0167 -0.1512  0.0011
 1065CHOL    R312937  19.854   8.773   4.787  0.0111  0.1106 -0.0573
 1065CHOL    R412938  19.886   8.519   4.523  0.1158 -0.0434  0.1014
 1065CHOL    R512939  20.213   8.617   4.380  0.0504  0.0368  0.0052
 1065CHOL    R612940  19.983   8.529   4.778  0.1381  0.1705  0.0862
 1065CHOL    C112941  19.661   8.439   4.904  0.1975  0.0822  0.1764
 1065CHOL    C212942  19.316   8.429   5.174 -0.0583  0.1858 -0.1712
 1066CHOL   ROH12943   4.996   4.061   7.010  0.0160 -0.0303 -0.1240
 1066CHOL    R112944   4.951   3.731   6.735  0.1252 -0.0740 -0.0897
 1066CHOL    R212945   5.021   4.064   6.662 -0.0886 -0.0370 -0.1321
 1066CHOL    R312946   5.023   3.628   6.326  0.0644 -0.0580 -0.1046
 1066CHOL    R412947   5.125   3.977   6.383 -0.1203  0.0053 -0.1571
 1066CHOL    R512948   5.236   3.954   6.736 -0.0021  0.0914 -0.1881
 1066CHOL    R612949   5.268   3.756   6.313 -0.0124  0.0834 -0.1852
 1066CHOL    C112950   5.149   3.786   5.977 -0.1295 -0.0061 -0.1523
 1066CHOL    C212951   4.929   3.698   5.590  0.1113 -0.3625 -0.0864
 1067CHOL   ROH12952  21.552  24.915   4.981 -0.1892  0.0834  0.0451
 1067CHOL    R112953  21.836  24.785   5.279 -0.2165  0.0244  0.0453
 1067CHOL    R212954  21.901  24.921   4.965 -0.1881 -0.0122  0.0352
 1067CHOL    R312955  22.253  24.809   5.373 -0.2071 -0.0829  0.0324
 1067CHOL    R412956  22.189  24.986   5.057 -0.1676 -0.0849  0.0233
 1067CHOL    R512957  21.847  25.110   5.122 -0.1323  0.0121  0.0251
 1067CHOL    R612958  22.278  25.075   5.299 -0.1371 -0.0939  0.0155
 1067CHOL    C112959  22.603  24.946   5.227 -0.1738 -0.1868  0.0145
 1067CHOL    C212960  22.982  24.735   5.336  0.2579  0.1400 -0.1539
 1068CHOL   ROH12961  16.587  19.654   7.249  0.0421 -0.2880 -0.0143
 1068CHOL    R112962  16.712  19.901   6.918  0.0600 -0.2332  0.0333
 1068CHOL    R212963  16.606  19.569   6.911  0.0855 -0.2402 -0.0238
 1068CHOL    R312964  16.709  19.909   6.491  0.1063 -0.1747  0.0340
 1068CHOL    R412965  16.553  19.597   6.607  0.1169 -0.2025 -0.0260
 1068CHOL    R512966  16.402  19.716   6.923  0.0731 -0.2572 -0.0261
 1068CHOL    R612967  16.452  19.809   6.468  0.1164 -0.1909 -0.0080
 1068CHOL    C112968  16.608  19.686   6.170  0.1583 -0.1384 -0.0078
 1068CHOL    C212969  16.737  19.783   5.755  0.1250 -0.1054  0.2200
 1069CHOL   ROH12970   5.695   6.478   3.917 -0.1996  0.0896  0.0195
 1069CHOL    R112971   5.881   6.409   4.300 -0.1591 -0.0454 -0.0241
 1069CHOL    R212972   5.544   6.461   4.231 -0.1495  0.1136  0.0449
 1069CHOL    R312973   5.783   6.312   4.705 -0.1273 -0.0568 -0.0192
 1069CHOL    R412974   5.473   6.338   4.507 -0.1531  0.1073  0.0412
 1069CHOL    R512975   5.598   6.220   4.179 -0.2657  0.0962  0.0019
 1069CHOL    R612976   5.588   6.127   4.637 -0.2221  0.0383 -0.0088
 1069CHOL    C112977   5.467   6.254   4.948 -0.1084  0.0501  0.0312
 1069CHOL    C212978   5.370   6.167   5.368  0.0183 -0.1066  0.0376
 1070CHOL   ROH12979  13.560  15.232   7.178 -0.2386  0.3287  0.0304
 1070CHOL    R112980  13.785  15.104   6.833 -0.1163  0.1358  0.1799
 1070CHOL    R212981  13.473  15.258   6.841 -0.1045  0.1727 -0.0173
 1070CHOL    R312982  13.793  15.146   6.408  0.0544 -0.0735  0.1607
 1070CHOL    R412983  13.508  15.335   6.543  0.0200  0.0231 -0.0428
 1070CHOL    R512984  13.649  15.436   6.870 -0.0976  0.1689 -0.0363
 1070CHOL    R612985  13.732  15.416   6.410  0.0803 -0.0652  0.0043
 1070CHOL    C112986  13.587  15.309   6.102  0.1901 -0.2017 -0.0007
 1070CHOL    C212987  13.721  15.330   5.704  0.1060 -0.1375  0.0429
 1071CHOL   ROH12988  21.464  15.768   3.694 -0.1070 -0.0001  0.0105
 1071CHOL    R112989  21.466  15.585   4.084  0.0015 -0.1744 -0.0705
 1071CHOL    R212990  21.622  15.880   3.984 -0.0555 -0.1109  0.0256
 1071CHOL    R312991  21.569  15.672   4.491  0.0818 -0.3435 -0.0540
 1071CHOL    R412992  21.645  15.964   4.281  0.0007 -0.2405  0.0587
 1071CHOL    R512993  21.379  15.931   4.026 -0.0523 -0.1579  0.1028
 1071CHOL    R612994  21.468  15.929   4.485  0.0503 -0.3523  0.0833
 1071CHOL    C112995  21.735  15.958   4.721  0.0996 -0.4264  0.0367
 1071CHOL    C212996  21.776  15.925   5.178 -0.1164  0.0681  0.4370
 1072CHOL   ROH12997  22.999   5.926   7.487  0.0162  0.0613 -0.0231
 1072CHOL    R112998  23.265   5.789   7.176 -0.0609 -0.0532 -0.0389
 1072CHOL    R212999  22.953   5.939   7.142  0.0116  0.1036 -0.0210
 1072CHOL    R313000  23.323   5.816   6.754 -0.0601 -0.0587 -0.0392
 1072CHOL    R413001  23.022   6.006   6.847  0.0359  0.0859 -0.0194
 1072CHOL    R513002  23.122   6.120   7.185  0.1033  0.0177 -0.0160
 1072CHOL    R613003  23.260   6.085   6.739  0.0725 -0.0257 -0.0222
 1072CHOL    C113004  23.154   5.965   6.420  0.0030  0.0444 -0.0257
 1072CHOL    C213005  23.361   5.794   6.088  0.2568  0.3114  0.1227
 1073CHOL   ROH13006   0.277  19.833   4.511 -0.2023  0.2079 -0.0801
 1073CHOL    R113007   0.190  20.013   4.894 -0.1735  0.0159  0.0180
 1073CHOL    R213008  -0.033  19.929   4.640 -0.1833  0.2188 -0.0423
 1073CHOL    R313009  -0.140  20.101   5.152 -0.1634 -0.0412  0.0508
 1073CHOL    R413010  -0.265  19.941   4.845 -0.1906  0.1653 -0.0475
 1073CHOL    R513011   0.022  19.719   4.768 -0.2463  0.1307 -0.1576
 1073CHOL    R613012  -0.270  19.861   5.106 -0.2255  0.0185 -0.0921
 1073CHOL    C113013  -0.542  20.084   5.168 -0.1690  0.0574  0.0191
 1073CHOL    C213014  -0.813  20.209   5.503 -0.1070 -0.0495  0.0559
 1074CHOL   ROH13015  14.745  19.995   6.807 -0.1517 -0.1853  0.0134
 1074CHOL    R113016  14.533  19.783   6.498 -0.1766 -0.1517  0.0074
 1074CHOL    R213017  14.747  20.055   6.464 -0.1553 -0.1675  0.0165
 1074CHOL    R313018  14.521  19.740   6.072 -0.1905 -0.1285  0.0055
 1074CHOL    R413019  14.779  19.987   6.163 -0.1681 -0.1544  0.0121
 1074CHOL    R513020  14.888  19.847   6.488 -0.1717 -0.1803  0.0022
 1074CHOL    R613021  14.796  19.743   6.042 -0.1910 -0.1495 -0.0010
 1074CHOL    C113022  14.684  19.888   5.735 -0.1866 -0.1243  0.0093
 1074CHOL    C213023  14.532  19.818   5.344  0.2230 -0.0655 -0.0891
 1075CHOL   ROH13024  13.616   6.640   7.285 -0.1880  0.2344  0.0865
 1075CHOL    R113025  13.467   6.497   6.906  0.0469 -0.0211  0.0870
 1075CHOL    R213026  13.723   6.726   6.964 -0.0493  0.0866  0.0921
 1075CHOL    R313027  13.568   6.493   6.490  0.2608 -0.2242  0.1389
 1075CHOL    R413028  13.826   6.677   6.676  0.1124 -0.0448  0.1702
 1075CHOL    R513029  13.817   6.493   6.997  0.0029  0.1311  0.2692
 1075CHOL    R613030  13.837   6.445   6.532  0.2542 -0.1227  0.3038
 1075CHOL    C113031  13.840   6.634   6.229  0.3533 -0.2907  0.1987
 1075CHOL    C213032  13.839   6.556   5.810  0.2084 -0.0224 -0.3567
 1076CHOL   ROH13033  15.060  19.342   3.709  0.1333  0.1844 -0.0874
 1076CHOL    R113034  15.009  19.205   4.115  0.0191  0.0088 -0.1600
 1076CHOL    R213035  15.202  19.470   4.001  0.0536  0.0572  0.0086
 1076CHOL    R313036  15.082  19.327   4.518 -0.0918 -0.1663 -0.0857
 1076CHOL    R413037  15.207  19.586   4.288 -0.0251 -0.0671  0.0606
 1076CHOL    R513038  14.963  19.548   4.013  0.0509  0.0541 -0.0243
 1076CHOL    R613039  15.009  19.590   4.476 -0.0774 -0.1470  0.0082
 1076CHOL    C113040  15.256  19.620   4.734 -0.1486 -0.2603  0.0903
 1076CHOL    C213041  15.022  19.761   5.080  0.1312  0.3102  0.0611
 1077CHOL   ROH13042   4.279  21.200   4.449  0.1120 -0.2611  0.1009
 1077CHOL    R113043   4.206  21.323   4.856  0.0045 -0.0355  0.0157
 1077CHOL    R213044   3.981  21.186   4.629  0.0722 -0.1921  0.0413
 1077CHOL    R313045   3.914  21.288   5.166 -0.0624  0.1085 -0.0304
 1077CHOL    R413046   3.794  21.113   4.866  0.0268 -0.0785  0.0413
 1077CHOL    R513047   4.117  20.997   4.727  0.0724 -0.1211  0.1810
 1077CHOL    R613048   3.858  21.022   5.115 -0.0193  0.0717  0.1090
 1077CHOL    C113049   3.545  21.143   5.239 -0.0620  0.1066 -0.0317
 1077CHOL    C213050   3.170  21.354   5.416 -0.1238 -0.0422  0.1068
 1078CHOL   ROH13051   6.498  21.492   4.292 -0.1832 -0.0492 -0.0096
 1078CHOL    R113052   6.584  21.797   4.585 -0.0817 -0.1229  0.0383
 1078CHOL    R213053   6.390  21.511   4.623 -0.2627 -0.0125 -0.0374
 1078CHOL    R313054   6.554  21.872   5.005 -0.1519 -0.1399  0.0365
 1078CHOL    R413055   6.417  21.539   4.931 -0.3299 -0.0538 -0.0275
 1078CHOL    R513056   6.633  21.445   4.644 -0.3067 -0.1580  0.0236
 1078CHOL    R613057   6.633  21.617   5.079 -0.3227 -0.1933  0.0377
 1078CHOL    C113058   6.414  21.710   5.346 -0.3417 -0.0856 -0.0145
 1078CHOL    C213059   6.293  21.875   5.743 -0.1467 -0.0621  0.0628
 1079CHOL   ROH13060   0.507  15.292   7.072  0.0067 -0.1073 -0.0932
 1079CHOL    R113061   0.262  15.168   6.739 -0.1680  0.3247 -0.1323
 1079CHOL    R213062   0.520  15.401   6.741  0.1556 -0.0232 -0.0605
 1079CHOL    R313063   0.244  15.193   6.313 -0.1352  0.4780 -0.1252
 1079CHOL    R413064   0.541  15.375   6.433  0.1197  0.0410 -0.0685
 1079CHOL    R513065   0.623  15.171   6.730 -0.1564 -0.1654 -0.1291
 1079CHOL    R613066   0.516  15.153   6.276 -0.1843  0.1178 -0.1356
 1079CHOL    C113067   0.431  15.360   5.997  0.0966  0.3208 -0.0740
 1079CHOL    C213068   0.316  15.492   5.585 -0.0301  0.3214  0.1451
 1080CHOL   ROH13069  22.233   5.844   5.803  0.0384  0.0487 -0.1300
 1080CHOL    R113070  22.415   6.060   5.478 -0.0097  0.2754 -0.0083
 1080CHOL    R213071  22.554   5.979   5.786  0.0925 -0.0798 -0.1433
 1080CHOL    R313072  22.797   6.200   5.344 -0.0056  0.2291 -0.0454
 1080CHOL    R413073  22.836   6.029   5.667  0.0631 -0.0962 -0.2211
 1080CHOL    R513074  22.568   5.775   5.638 -0.0650  0.0513 -0.3441
 1080CHOL    R613075  22.932   5.970   5.419 -0.0743  0.0939 -0.3215
 1080CHOL    C113076  23.183   6.222   5.457  0.0571 -0.0539 -0.1924
 1080CHOL    C213077  23.431   6.594   5.380  0.1524 -0.1615 -0.0248
 1081CHOL   ROH13078   8.001   1.556   3.302  0.2017 -0.0190 -0.0640
 1081CHOL    R113079   7.798   1.632   3.675 -0.0116  0.1475 -0.2116
 1081CHOL    R213080   8.128   1.703   3.592  0.1137 -0.1282  0.0311
 1081CHOL    R313081   7.844   1.850   4.040 -0.0963  0.1055 -0.1755
 1081CHOL    R413082   8.140   1.904   3.828  0.1087 -0.1398  0.0413
 1081CHOL    R513083   7.982   1.884   3.494  0.3360 -0.0031 -0.0769
 1081CHOL    R613084   7.949   2.076   3.918  0.1839  0.0210 -0.0993
 1081CHOL    C113085   8.107   2.083   4.239 -0.0445 -0.1161  0.0194
 1081CHOL    C213086   7.795   2.148   4.499  0.2083  0.1319  0.2043
 1082CHOL   ROH13087  27.337  21.796   6.655 -0.0766  0.2305 -0.0089
 1082CHOL    R113088  27.141  21.748   6.274  0.0533  0.0866 -0.0585
 1082CHOL    R213089  27.391  21.973   6.359 -0.0387  0.1796 -0.0327
 1082CHOL    R313090  27.179  21.863   5.864  0.1441  0.0048 -0.0734
 1082CHOL    R413091  27.453  22.013   6.058  0.0414  0.1293 -0.0233
 1082CHOL    R513092  27.500  21.750   6.314  0.0408  0.2008  0.0508
 1082CHOL    R613093  27.454  21.830   5.856  0.1567  0.0833  0.0180
 1082CHOL    C113094  27.403  22.093   5.619  0.1516  0.0148 -0.0572
 1082CHOL    C213095  27.398  22.137   5.169 -0.0321  0.1458 -0.3150
 1083CHOL   ROH13096   9.237   4.822   6.262  0.1042 -0.1096  0.0472
 1083CHOL    R113097   9.052   4.491   6.057  0.0651 -0.0474 -0.0185
 1083CHOL    R213098   9.155   4.796   5.924  0.1961 -0.0736  0.0218
 1083CHOL    R313099   8.976   4.346   5.661  0.1384 -0.0110 -0.0461
 1083CHOL    R413100   9.151   4.669   5.641  0.2419 -0.0628  0.0162
 1083CHOL    R513101   9.358   4.648   5.947  0.1452 -0.1355  0.0772
 1083CHOL    R613102   9.224   4.418   5.562  0.1897 -0.0822  0.0296
 1083CHOL    C113103   9.015   4.449   5.273  0.2841 -0.0097 -0.0314
 1083CHOL    C213104   8.771   4.225   5.002 -0.1692  0.0185  0.2726
 1084CHOL   ROH13105  22.403  17.317   6.578  0.1072  0.3323  0.0570
 1084CHOL    R113106  22.278  17.447   6.186  0.0546  0.2196  0.0361
 1084CHOL    R213107  22.601  17.432   6.314  0.0720  0.2567 -0.0027
 1084CHOL    R313108  22.437  17.536   5.799  0.0030  0.1086 -0.0114
 1084CHOL    R413109  22.712  17.442   6.025  0.0333  0.1736 -0.0208
 1084CHOL    R513110  22.535  17.199   6.241  0.0620  0.2356  0.0729
 1084CHOL    R613111  22.616  17.325   5.798  0.0027  0.1081  0.0256
 1084CHOL    C113112  22.787  17.568   5.601 -0.0235  0.0517 -0.0676
 1084CHOL    C213113  22.857  17.764   5.202 -0.0751 -0.2019 -0.0094
 1085CHOL   ROH13114  26.104  11.055   4.201  0.2760 -0.2046  0.1764
 1085CHOL    R113115  26.197  11.390   4.456 -0.1031  0.0252  0.0227
 1085CHOL    R213116  25.924  11.176   4.474  0.1330 -0.2756  0.1147
 1085CHOL    R313117  26.083  11.565   4.829 -0.3082  0.0756 -0.0623
 1085CHOL    R413118  25.877  11.267   4.767  0.0245 -0.1890  0.0712
 1085CHOL    R513119  26.121  11.060   4.581  0.2631 -0.0066  0.1756
 1085CHOL    R613120  26.060  11.323   4.962 -0.0406  0.1079  0.0508
 1085CHOL    C113121  25.817  11.525   5.130 -0.2733 -0.0820 -0.0513
 1085CHOL    C213122  25.926  11.796   5.490 -0.1112  0.0122 -0.2379
 1086CHOL   ROH13123  18.172   6.485   3.484 -0.1841 -0.0373 -0.0450
 1086CHOL    R113124  18.160   6.353   3.895 -0.0696 -0.1093 -0.0644
 1086CHOL    R213125  18.178   6.679   3.774 -0.1733 -0.0843 -0.0136
 1086CHOL    R313126  18.102   6.505   4.290 -0.0271 -0.1898 -0.0270
 1086CHOL    R413127  18.082   6.783   4.049 -0.1431 -0.1539  0.0233
 1086CHOL    R513128  17.938   6.604   3.759 -0.1579 -0.1403  0.0222
 1086CHOL    R613129  17.897   6.676   4.219 -0.0833 -0.2276  0.0430
 1086CHOL    C113130  18.048   6.850   4.492 -0.0703 -0.2365  0.0416
 1086CHOL    C213131  17.760   6.912   4.810 -0.0592  0.0749  0.0213
 1087CHOL   ROH13132  13.833  11.738   7.030 -0.2173  0.1032  0.0566
 1087CHOL    R113133  13.746  11.920   6.648 -0.2173  0.0014  0.0077
 1087CHOL    R213134  13.878  11.604   6.711 -0.0686  0.0780  0.0871
 1087CHOL    R313135  13.706  11.820   6.234 -0.0631 -0.0813  0.0121
 1087CHOL    R413136  13.797  11.518   6.424  0.0467 -0.0067  0.0793
 1087CHOL    R513137  13.628  11.592   6.745 -0.0720 -0.0460  0.0264
 1087CHOL    R613138  13.573  11.582   6.281  0.0484 -0.1436  0.0139
 1087CHOL    C113139  13.749  11.513   5.977  0.1602 -0.0981  0.0678
 1087CHOL    C213140  13.574  11.565   5.583  0.3984  0.0184  0.0003
 1088CHOL   ROH13141  22.602   7.599   7.065 -0.0091 -0.0462  0.1019
 1088CHOL    R113142  22.813   7.316   6.818  0.1109  0.1742 -0.0520
 1088CHOL    R213143  22.520   7.489   6.745 -0.0698 -0.0530  0.1198
 1088CHOL    R313144  22.828   7.174   6.415  0.0379  0.2634 -0.0865
 1088CHOL    R413145  22.564   7.429   6.444 -0.1626  0.0415  0.0868
 1088CHOL    R513146  22.714   7.644   6.705 -0.2162  0.1168  0.0557
 1088CHOL    R613147  22.797   7.424   6.301 -0.2242  0.2616 -0.0255
 1088CHOL    C113148  22.642   7.211   6.059 -0.1639  0.1789  0.0082
 1088CHOL    C213149  22.795   7.040   5.685  0.1583  0.0327  0.1714
 1089CHOL   ROH13150   7.304  23.731   7.771  0.0782  0.0225  0.0342
 1089CHOL    R113151   7.601  23.778   7.462  0.0415 -0.0183 -0.0076
 1089CHOL    R213152   7.255  23.785   7.430  0.0377 -0.0061  0.0353
 1089CHOL    R313153   7.640  23.904   7.056 -0.0041 -0.0566 -0.0240
 1089CHOL    R413154   7.287  23.928   7.157  0.0096 -0.0319  0.0184
 1089CHOL    R513155   7.330  24.011   7.515  0.0583 -0.0016  0.0056
 1089CHOL    R613156   7.468  24.119   7.082  0.0086 -0.0467 -0.0215
 1089CHOL    C113157   7.422  24.026   6.740 -0.0386 -0.0755 -0.0074
 1089CHOL    C213158   7.508  24.255   6.348  0.3105  0.0132  0.0823
 1090CHOL   ROH13159  11.651  17.990   7.050 -0.0694  0.1478 -0.1080
 1090CHOL    R113160  11.966  18.068   6.766  0.0303  0.1429  0.0004
 1090CHOL    R213161  11.629  18.008   6.702  0.0569  0.1156 -0.1182
 1090CHOL    R313162  12.024  18.169   6.354  0.1748  0.1104  0.0123
 1090CHOL    R413163  11.664  18.134   6.421  0.1521  0.0930 -0.1168
 1090CHOL    R513164  11.654  18.249   6.772  0.0154  0.1236 -0.1302
 1090CHOL    R613165  11.814  18.349   6.345  0.1663  0.0960 -0.0807
 1090CHOL    C113166  11.821  18.223   6.010  0.2973  0.0670 -0.0674
 1090CHOL    C213167  11.973  18.299   5.609 -0.1036  0.4718 -0.2915
 1091CHOL   ROH13168  24.306  22.053   7.001 -0.0763  0.1033  0.0168
 1091CHOL    R113169  24.298  21.867   6.612  0.0324  0.0772  0.0269
 1091CHOL    R213170  24.336  22.204   6.688 -0.1030  0.0965  0.0109
 1091CHOL    R313171  24.385  21.952   6.202  0.0406  0.0862  0.0304
 1091CHOL    R413172  24.451  22.252   6.404 -0.0931  0.1233  0.0194
 1091CHOL    R513173  24.559  22.092   6.720 -0.0632  0.1829  0.0394
 1091CHOL    R613174  24.617  22.093   6.256 -0.0184  0.1772  0.0449
 1091CHOL    C113175  24.500  22.251   5.958 -0.0494  0.1154  0.0241
 1091CHOL    C213176  24.434  22.210   5.507  0.2632  0.3486  0.1422
 1092CHOL   ROH13177  21.868  27.443   6.829 -0.1750  0.0998  0.0120
 1092CHOL    R113178  21.594  27.742   6.680 -0.1356  0.1063 -0.0475
 1092CHOL    R213179  21.919  27.675   6.574 -0.1047  0.1151  0.0396
 1092CHOL    R313180  21.542  28.010   6.351 -0.0449  0.1252 -0.0467
 1092CHOL    R413181  21.858  27.825   6.309 -0.0318  0.1301  0.0313
 1092CHOL    R513182  21.765  27.504   6.469 -0.0742  0.1203 -0.0135
 1092CHOL    R613183  21.629  27.829   6.161  0.0099  0.1371 -0.0329
 1092CHOL    C113184  21.728  28.142   6.018  0.0477  0.1462  0.0130
 1092CHOL    C213185  21.589  28.451   5.741  0.4364  0.1329 -0.1556
 1093CHOL   ROH13186  22.246   7.951   4.052 -0.2487 -0.0507  0.0282
 1093CHOL    R113187  22.389   7.773   4.418 -0.0239  0.1760  0.0533
 1093CHOL    R213188  22.154   8.027   4.379 -0.2125 -0.0002  0.0268
 1093CHOL    R313189  22.297   7.753   4.835  0.1037  0.2572  0.0860
 1093CHOL    R413190  22.052   7.971   4.667 -0.0958  0.0291  0.0742
 1093CHOL    R513191  22.039   7.807   4.336 -0.0716 -0.0972  0.1354
 1093CHOL    R613192  22.023   7.733   4.797  0.1057  0.0527  0.1664
 1093CHOL    C113193  22.044   7.903   5.111  0.0731  0.1777  0.1015
 1093CHOL    C213194  22.099   7.788   5.533  0.2931  0.0384 -0.0072
 1094CHOL   ROH13195  16.874   1.735   7.632  0.2106  0.0358 -0.1244
 1094CHOL    R113196  16.555   1.691   7.345  0.0841  0.0103  0.0188
 1094CHOL    R213197  16.864   1.844   7.301  0.0441  0.0538 -0.1142
 1094CHOL    R313198  16.478   1.730   6.926 -0.1134  0.0246  0.0557
 1094CHOL    R413199  16.828   1.821   6.994 -0.0936  0.0670 -0.0995
 1094CHOL    R513200  16.897   1.595   7.279  0.0675  0.0594 -0.1438
 1094CHOL    R613201  16.719   1.618   6.848 -0.1338  0.0610 -0.0614
 1094CHOL    C113202  16.652   1.847   6.581 -0.2866  0.0677 -0.0180
 1094CHOL    C213203  16.366   2.014   6.306 -0.0891  0.4640  0.0019
 1095CHOL   ROH13204  17.941  10.409   3.797 -0.1468  0.0534  0.0249
 1095CHOL    R113205  17.941  10.053   4.042  0.1057  0.0258 -0.0131
 1095CHOL    R213206  18.050  10.373   4.126 -0.0598  0.0796 -0.0007
 1095CHOL    R313207  17.990   9.930   4.448  0.2580  0.0087 -0.0358
 1095CHOL    R413208  18.031  10.296   4.426  0.0443  0.0358 -0.0051
 1095CHOL    R513209  17.798  10.368   4.147 -0.0537 -0.0665  0.0495
 1095CHOL    R613210  17.845  10.141   4.553  0.1574 -0.0850  0.0161
 1095CHOL    C113211  18.081  10.075   4.814  0.2490  0.0212 -0.0385
 1095CHOL    C213212  18.405   9.881   5.016 -0.0171 -0.1317  0.0677
 1096CHOL   ROH13213   0.798   3.133   7.160 -0.1546 -0.0766 -0.0033
 1096CHOL    R113214   0.899   3.264   6.762 -0.0856 -0.0570  0.0205
 1096CHOL    R213215   0.590   3.159   6.882 -0.1237  0.0101 -0.0186
 1096CHOL    R313216   0.715   3.385   6.395 -0.0223  0.0337  0.0182
 1096CHOL    R413217   0.454   3.297   6.639 -0.0667  0.0739 -0.0148
 1096CHOL    R513218   0.624   3.399   6.952 -0.0669 -0.0067  0.0120
 1096CHOL    R613219   0.516   3.533   6.517  0.0059  0.0719  0.0178
 1096CHOL    C113220   0.354   3.420   6.219  0.0022  0.1487 -0.0094
 1096CHOL    C213221   0.392   3.380   5.783 -0.0815 -0.1418  0.0189
 1097CHOL   ROH13222   6.741   2.198   6.525  0.0808 -0.0770 -0.1135
 1097CHOL    R113223   6.840   2.402   6.158  0.0622 -0.0150 -0.0841
 1097CHOL    R213224   6.751   2.069   6.202  0.0314 -0.0142 -0.1403
 1097CHOL    R313225   6.818   2.352   5.734  0.0101  0.0711 -0.0920
 1097CHOL    R413226   6.683   2.052   5.900 -0.0036  0.0527 -0.1365
 1097CHOL    R513227   6.539   2.207   6.203  0.0462  0.0081 -0.0898
 1097CHOL    R613228   6.566   2.237   5.738 -0.0017  0.0973 -0.0870
 1097CHOL    C113229   6.716   2.082   5.452 -0.0496  0.1376 -0.1342
 1097CHOL    C213230   6.761   2.191   5.038 -0.0062  0.1457  0.1007
 1098CHOL   ROH13231   4.920   6.804   3.683  0.1782  0.0515 -0.0410
 1098CHOL    R113232   4.645   6.655   3.981  0.1652  0.0502 -0.0537
 1098CHOL    R213233   4.948   6.819   4.031  0.1153  0.1390 -0.0393
 1098CHOL    R313234   4.564   6.681   4.400  0.0872  0.1265 -0.0730
 1098CHOL    R413235   4.861   6.884   4.321  0.0493  0.1840 -0.0687
 1098CHOL    R513236   4.773   6.993   3.979  0.0795  0.0826 -0.1094
 1098CHOL    R613237   4.615   6.953   4.417  0.0152  0.1435 -0.1267
 1098CHOL    C113238   4.711   6.838   4.742 -0.0108  0.2427 -0.0838
 1098CHOL    C213239   4.613   6.714   5.136  0.2663 -0.1528 -0.1331
 1099CHOL   ROH13240  14.010  17.818   7.310 -0.2187  0.1838 -0.1045
 1099CHOL    R113241  14.236  17.666   6.975 -0.0783  0.1243  0.0159
 1099CHOL    R213242  13.948  17.861   6.969 -0.0995  0.0901 -0.1390
 1099CHOL    R313243  14.275  17.714   6.552  0.0708  0.0215  0.0172
 1099CHOL    R413244  14.011  17.938   6.676 -0.0011  0.0226 -0.1362
 1099CHOL    R513245  14.145  18.013   7.013 -0.1328  0.1237 -0.1053
 1099CHOL    R613246  14.252  17.990   6.558  0.0362  0.0203 -0.0613
 1099CHOL    C113247  14.112  17.910   6.239  0.1621 -0.0768 -0.0927
 1099CHOL    C213248  14.223  17.690   5.893  0.1666  0.0543  0.2167
 1100CHOL   ROH13249   0.674  20.219   4.131 -0.2103 -0.1488  0.0062
 1100CHOL    R113250   0.556  20.425   4.491 -0.2716 -0.1171 -0.0317
 1100CHOL    R213251   0.642  20.090   4.453 -0.1374 -0.0912  0.0369
 1100CHOL    R313252   0.549  20.373   4.916 -0.2239 -0.0264 -0.0199
 1100CHOL    R413253   0.689  20.071   4.759 -0.1105 -0.0046  0.0382
 1100CHOL    R513254   0.855  20.224   4.465 -0.1910 -0.0015 -0.0058
 1100CHOL    R613255   0.799  20.255   4.928 -0.1745  0.0778 -0.0090
 1100CHOL    C113256   0.629  20.102   5.203 -0.0951  0.0689  0.0353
 1100CHOL    C213257   0.546  20.145   5.636 -0.0826  0.2783  0.2102
 1101CHOL   ROH13258  23.204   1.805   7.147 -0.0679 -0.1275  0.0188
 1101CHOL    R113259  23.237   2.035   6.784  0.0009 -0.1601  0.0043
 1101CHOL    R213260  23.436   2.054   7.069 -0.1106 -0.0689  0.0770
 1101CHOL    R313261  23.507   2.298   6.580  0.0010 -0.1051  0.0749
 1101CHOL    R413262  23.655   2.197   6.902 -0.0898 -0.0246  0.1422
 1101CHOL    R513263  23.513   1.856   6.932 -0.0018 -0.0626  0.1285
 1101CHOL    R613264  23.733   2.152   6.645  0.0198 -0.0319  0.1765
 1101CHOL    C113265  23.861   2.486   6.627 -0.0705  0.0034  0.1859
 1101CHOL    C213266  24.052   2.694   6.296 -0.0520 -0.0515  0.2660
 1102CHOL   ROH13267  15.452  10.488   3.622  0.0593  0.1416 -0.1205
 1102CHOL    R113268  15.495  10.827   3.885  0.2600  0.0201  0.0056
 1102CHOL    R213269  15.348  10.519   3.953 -0.0423  0.1253 -0.1502
 1102CHOL    R313270  15.463  10.932   4.298  0.1943 -0.0852  0.0277
 1102CHOL    R413271  15.377  10.577   4.256 -0.1073  0.0012 -0.1197
 1102CHOL    R513272  15.599  10.492   3.972 -0.0711 -0.1034 -0.0607
 1102CHOL    R613273  15.581  10.700   4.391 -0.0477 -0.2223 -0.0002
 1102CHOL    C113274  15.355  10.781   4.656 -0.0801 -0.1083 -0.0619
 1102CHOL    C213275  15.653  10.912   4.965 -0.1454  0.3142  0.1462
 1103CHOL   ROH13276  20.102   6.855   6.327  0.1332 -0.1750 -0.0585
 1103CHOL    R113277  20.232   7.139   6.029 -0.1435 -0.0783 -0.0897
 1103CHOL    R213278  20.238   6.791   6.012  0.0653 -0.0747 -0.1086
 1103CHOL    R313279  20.343   7.160   5.617 -0.2974  0.0122 -0.1274
 1103CHOL    R413280  20.264   6.811   5.704 -0.0523 -0.0424 -0.1170
 1103CHOL    R513281  20.003   6.868   5.960 -0.0009 -0.2168 -0.0244
 1103CHOL    R613282  20.146   6.986   5.531 -0.2201 -0.1059 -0.0682
 1103CHOL    C113283  20.407   6.927   5.294 -0.2637  0.0676 -0.1608
 1103CHOL    C213284  20.617   6.961   4.901  0.0658  0.1295 -0.2842
 1104CHOL   ROH13285  27.015  23.247   3.548  0.0739 -0.1194 -0.1019
 1104CHOL    R113286  27.118  23.584   3.797 -0.1285 -0.0936 -0.0518
 1104CHOL    R213287  27.009  23.268   3.896  0.0704 -0.1781 -0.0982
 1104CHOL    R313288  27.200  23.682   4.206 -0.1779 -0.1064 -0.0387
 1104CHOL    R413289  27.121  23.323   4.180  0.0445 -0.1534 -0.0928
 1104CHOL    R513290  27.255  23.253   3.843  0.0793 -0.0164 -0.1081
 1104CHOL    R613291  27.349  23.454   4.254 -0.0337 -0.0225 -0.0791
 1104CHOL    C113292  27.205  23.520   4.575 -0.0669 -0.1622 -0.0642
 1104CHOL    C213293  27.210  23.602   4.994 -0.2748  0.0514 -0.2067
 1105CHOL   ROH13294  23.602   5.593   4.030  0.3610 -0.1370  0.0766
 1105CHOL    R113295  23.445   5.818   4.363  0.0368 -0.1761 -0.0463
 1105CHOL    R213296  23.539   5.483   4.355  0.2489 -0.1205  0.0611
 1105CHOL    R313297  23.397   5.793   4.787 -0.1823 -0.1335 -0.0676
 1105CHOL    R413298  23.556   5.485   4.665  0.0772 -0.0571  0.0712
 1105CHOL    R513299  23.748   5.622   4.380  0.1505  0.0132  0.1540
 1105CHOL    R613300  23.646   5.681   4.832 -0.1361  0.0276  0.0890
 1105CHOL    C113301  23.451   5.541   5.098 -0.1980 -0.0476  0.0050
 1105CHOL    C213302  23.255   5.629   5.494  0.1093 -0.0124  0.0818
 1106CHOL   ROH13303  19.095  14.843   6.207  0.0197 -0.1397 -0.2469
 1106CHOL    R113304  19.353  15.160   6.069 -0.0715 -0.0577 -0.2302
 1106CHOL    R213305  19.278  14.859   5.911  0.1453 -0.1452 -0.1703
 1106CHOL    R313306  19.555  15.293   5.716  0.0223 -0.0712 -0.1819
 1106CHOL    R413307  19.376  14.980   5.643  0.2068 -0.1823 -0.1646
 1106CHOL    R513308  19.087  15.018   5.870  0.0852 -0.2501 -0.3065
 1106CHOL    R613309  19.346  15.233   5.546  0.1266 -0.2271 -0.2580
 1106CHOL    C113310  19.631  15.186   5.335  0.2455 -0.1562 -0.1154
 1106CHOL    C213311  19.833  15.387   5.002  0.1138  0.2268 -0.3024
 1107CHOL   ROH13312  12.707   3.990   7.299  0.1104 -0.1195  0.0695
 1107CHOL    R113313  13.030   3.903   7.026  0.0813 -0.0585  0.0150
 1107CHOL    R213314  12.689   3.925   6.957  0.0709 -0.0702  0.0620
 1107CHOL    R313315  13.112   3.875   6.607  0.0294  0.0086  0.0002
 1107CHOL    R413316  12.757   3.960   6.656  0.0302 -0.0215  0.0583
 1107CHOL    R513317  12.783   4.159   6.967  0.0570 -0.0657  0.0846
 1107CHOL    R613318  12.962   4.097   6.540  0.0064  0.0089  0.0523
 1107CHOL    C113319  12.931   3.894   6.247 -0.0179  0.0500  0.0262
 1107CHOL    C213320  13.137   3.648   5.931  0.1827  0.0116  0.0551
 1108CHOL   ROH13321  18.306  25.686   7.275  0.2504 -0.2116 -0.0206
 1108CHOL    R113322  18.403  25.527   6.885  0.1473 -0.1019 -0.0918
 1108CHOL    R213323  18.119  25.704   6.981  0.1763 -0.1209  0.0317
 1108CHOL    R313324  18.280  25.552   6.477  0.0441  0.0201 -0.0540
 1108CHOL    R413325  18.063  25.767   6.682  0.1022 -0.0328  0.0636
 1108CHOL    R513326  18.305  25.870   6.942  0.1713 -0.1152  0.0325
 1108CHOL    R613327  18.238  25.826   6.482  0.0529  0.0200  0.0359
 1108CHOL    C113328  17.998  25.717   6.241 -0.0115  0.0971  0.0651
 1108CHOL    C213329  17.857  25.623   5.808  0.2040 -0.0908 -0.2816
 1109CHOL   ROH13330  14.323  12.322   4.476  0.0451  0.0383 -0.0668
 1109CHOL    R113331  14.652  12.471   4.711 -0.0656  0.0651  0.0727
 1109CHOL    R213332  14.382  12.278   4.817 -0.0902  0.0353 -0.0430
 1109CHOL    R313333  14.836  12.421   5.094 -0.2173  0.0734  0.1472
 1109CHOL    R413334  14.542  12.200   5.071 -0.1860  0.0446  0.0209
 1109CHOL    R513335  14.550  12.124   4.708 -0.0299  0.0548  0.0214
 1109CHOL    R613336  14.809  12.145   5.097 -0.1910  0.0705  0.1286
 1109CHOL    C113337  14.790  12.227   5.445 -0.3416  0.0595  0.1236
 1109CHOL    C213338  14.739  12.356   5.872 -0.2754  0.0359  0.0323
 1110CHOL   ROH13339  15.110  19.719   7.026 -0.0818 -0.1351 -0.0781
 1110CHOL    R113340  14.925  19.483   6.717 -0.1774 -0.0496 -0.0872
 1110CHOL    R213341  15.162  19.735   6.682 -0.0664 -0.1512 -0.0765
 1110CHOL    R313342  14.967  19.388   6.302 -0.2080 -0.0600 -0.0879
 1110CHOL    R413343  15.228  19.628   6.399 -0.1058 -0.1749 -0.0768
 1110CHOL    R513344  15.282  19.524   6.750 -0.1596 -0.2051 -0.0774
 1110CHOL    R613345  15.243  19.370   6.310 -0.2155 -0.1800 -0.0813
 1110CHOL    C113346  15.184  19.482   5.976 -0.1584 -0.1481 -0.0807
 1110CHOL    C213347  15.131  19.459   5.551  0.0608 -0.0659  0.1527
 1111CHOL   ROH13348   0.103   0.324   6.476 -0.0366  0.1501  0.0008
 1111CHOL    R113349  -0.009   0.208   6.076  0.0912 -0.0012  0.0078
 1111CHOL    R213350   0.303   0.312   6.190  0.0483  0.0679  0.0628
 1111CHOL    R313351   0.165   0.105   5.699  0.2113 -0.1179  0.0941
 1111CHOL    R413352   0.433   0.187   5.938  0.1339 -0.0090  0.1444
 1111CHOL    R513353   0.274   0.069   6.252  0.0531  0.0866  0.1399
 1111CHOL    R613354   0.370  -0.046   5.809  0.1936 -0.0607  0.2072
 1111CHOL    C113355   0.521   0.082   5.510  0.2690 -0.1516  0.2061
 1111CHOL    C213356   0.503   0.107   5.083  0.0002  0.0955 -0.4522
 1112CHOL   ROH13357   2.064   6.897   3.833  0.1431 -0.1778  0.0360
 1112CHOL    R113358   2.322   6.789   4.161  0.1086  0.0652  0.1458
 1112CHOL    R213359   2.043   6.996   4.167 -0.0500 -0.1410  0.0139
 1112CHOL    R313360   2.340   6.803   4.588 -0.0551  0.1455  0.1506
 1112CHOL    R413361   2.027   6.959   4.474 -0.1328 -0.1051  0.0141
 1112CHOL    R513362   1.963   6.756   4.171  0.1265 -0.2015  0.0211
 1112CHOL    R613363   2.074   6.736   4.625 -0.0199 -0.0476  0.0650
 1112CHOL    C113364   2.139   6.943   4.909 -0.2755  0.0468  0.0577
 1112CHOL    C213365   2.303   7.084   5.289 -0.2096  0.2662 -0.1531
 1113CHOL   ROH13366  23.745  20.782   4.256 -0.2830  0.1433  0.1194
 1113CHOL    R113367  23.888  21.180   4.342  0.1131  0.0081  0.1056
 1113CHOL    R213368  23.801  20.929   4.568 -0.2952  0.1530  0.1170
 1113CHOL    R313369  24.041  21.415   4.665  0.1939 -0.0861  0.1368
 1113CHOL    R413370  23.961  21.078   4.788 -0.2533  0.0266  0.1725
 1113CHOL    R513371  24.034  20.881   4.483 -0.2975 -0.1262  0.2597
 1113CHOL    R613372  24.198  21.212   4.769 -0.0892 -0.2400  0.2740
 1113CHOL    C113373  24.113  21.400   5.061 -0.0477 -0.0772  0.1825
 1113CHOL    C213374  24.292  21.744   5.236  0.0916 -0.1663  0.0576
 1114CHOL   ROH13375  18.707  11.458   6.714  0.1793 -0.1492 -0.1764
 1114CHOL    R113376  18.336  11.428   6.495  0.0807 -0.0644 -0.0227
 1114CHOL    R213377  18.648  11.529   6.377  0.0321 -0.0349 -0.1273
 1114CHOL    R313378  18.186  11.430   6.094 -0.0973  0.0741  0.0433
 1114CHOL    R413379  18.551  11.477   6.088 -0.0982  0.0648 -0.1030
 1114CHOL    R513380  18.646  11.277   6.385  0.0282 -0.0377 -0.2106
 1114CHOL    R613381  18.392  11.276   5.992 -0.1468  0.1015 -0.0998
 1114CHOL    C113382  18.305  11.481   5.712 -0.2650  0.1980  0.0068
 1114CHOL    C213383  18.008  11.617   5.432 -0.1173 -0.0401 -0.0500
 1115CHOL   ROH13384  14.446  21.486   7.035 -0.2404  0.1415 -0.1278
 1115CHOL    R113385  14.669  21.277   6.731 -0.0869  0.0526  0.0436
 1115CHOL    R213386  14.372  21.181   6.885 -0.1379  0.0734 -0.0411
 1115CHOL    R313387  14.630  20.952   6.455  0.0698 -0.0591  0.1517
 1115CHOL    R413388  14.320  20.983   6.652 -0.0158 -0.0237  0.0129
 1115CHOL    R513389  14.315  21.349   6.706 -0.0867 -0.0027 -0.1298
 1115CHOL    R613390  14.369  21.013   6.385  0.0902 -0.1201  0.0205
 1115CHOL    C113391  14.377  20.658   6.347  0.1532 -0.1344  0.1604
 1115CHOL    C213392  14.357  20.637   5.892 -0.1192  0.0238 -0.0058
 1116CHOL   ROH13393   0.448   5.064   7.051 -0.1027  0.3046  0.0057
 1116CHOL    R113394   0.430   5.286   6.681  0.0672  0.1232 -0.1128
 1116CHOL    R213395   0.418   4.941   6.726 -0.0755  0.1497  0.0613
 1116CHOL    R313396   0.335   5.233   6.267  0.1422 -0.0518 -0.1088
 1116CHOL    R413397   0.296   4.912   6.442 -0.0215  0.0513  0.0479
 1116CHOL    R513398   0.188   5.034   6.775 -0.0513  0.2633 -0.0383
 1116CHOL    R613399   0.116   5.071   6.314  0.0688  0.0564 -0.0753
 1116CHOL    C113400   0.233   4.950   5.999  0.0950 -0.1505  0.0126
 1116CHOL    C213401   0.056   5.177   5.668 -0.3241  0.2274  0.2964
 1117CHOL   ROH13402   6.392  12.094   6.873  0.0788 -0.0280  0.0231
 1117CHOL    R113403   6.386  12.385   6.554  0.1961 -0.1312 -0.0739
 1117CHOL    R213404   6.370  12.038   6.530 -0.0703 -0.1297  0.0482
 1117CHOL    R313405   6.302  12.417   6.136  0.0894 -0.2116 -0.0592
 1117CHOL    R413406   6.256  12.068   6.243 -0.1383 -0.1433  0.0735
 1117CHOL    R513407   6.140  12.123   6.590  0.0104  0.0624  0.0924
 1117CHOL    R613408   6.081  12.252   6.144 -0.0326 -0.0448  0.0669
 1117CHOL    C113409   6.206  12.194   5.815 -0.1779 -0.2511  0.0461
 1117CHOL    C213410   6.378  12.369   5.451 -0.0767 -0.1470 -0.0562
 1118CHOL   ROH13411   1.892  13.799   4.602  0.0599  0.0422 -0.0753
 1118CHOL    R113412   1.878  13.835   5.032  0.1652  0.0430 -0.0717
 1118CHOL    R213413   2.000  13.570   4.842 -0.0489 -0.0369 -0.1007
 1118CHOL    R313414   2.034  13.651   5.386  0.1086 -0.0700 -0.1050
 1118CHOL    R413415   2.157  13.470   5.090 -0.0691 -0.1482 -0.1324
 1118CHOL    R513416   2.177  13.750   4.848  0.0745 -0.1558 -0.1300
 1118CHOL    R613417   2.287  13.614   5.282  0.0649 -0.2396 -0.1537
 1118CHOL    C113418   2.256  13.338   5.508 -0.0786 -0.2244 -0.1539
 1118CHOL    C213419   2.301  13.154   5.899 -0.1168 -0.2393  0.0263
 1119CHOL   ROH13420  10.887   9.364   7.351 -0.0806  0.1636  0.0447
 1119CHOL    R113421  11.196   9.595   7.158 -0.1267  0.2377  0.0593
 1119CHOL    R213422  11.058   9.293   7.055 -0.0137  0.1786  0.0796
 1119CHOL    R313423  11.407   9.624   6.787 -0.0809  0.2553  0.0866
 1119CHOL    R413424  11.167   9.345   6.770  0.0119  0.1751  0.0888
 1119CHOL    R513425  10.900   9.478   6.989 -0.0639  0.1184  0.0311
 1119CHOL    R613426  11.183   9.579   6.630 -0.0433  0.1615  0.0593
 1119CHOL    C113427  11.445   9.441   6.430  0.0314  0.2187  0.1168
 1119CHOL    C213428  11.779   9.571   6.165  0.3019  0.1383 -0.2963
 1120CHOL   ROH13429  13.426  17.213   7.404 -0.3360  0.1213 -0.1126
 1120CHOL    R113430  13.453  17.434   7.035 -0.0295  0.1462 -0.0777
 1120CHOL    R213431  13.553  17.107   7.097 -0.3314  0.0498 -0.0861
 1120CHOL    R313432  13.527  17.376   6.618  0.0505  0.1347 -0.0621
 1120CHOL    R413433  13.552  17.053   6.792 -0.2831  0.0885 -0.0932
 1120CHOL    R513434  13.303  17.107   7.061 -0.3220  0.2702 -0.1644
 1120CHOL    R613435  13.379  17.143   6.601 -0.1473  0.2627 -0.1367
 1120CHOL    C113436  13.630  17.092   6.351 -0.1118  0.0771 -0.0646
 1120CHOL    C213437  13.748  17.056   5.914 -0.0479 -0.0523  0.0461
 1121CHOL   ROH13438  22.983  25.099   6.846  0.0247 -0.0817 -0.0433
 1121CHOL    R113439  23.004  25.470   6.628  0.1008 -0.0560  0.0072
 1121CHOL    R213440  23.033  25.146   6.505  0.0045 -0.0466 -0.0415
 1121CHOL    R313441  22.997  25.620   6.227  0.1019  0.0023  0.0289
 1121CHOL    R413442  22.974  25.253   6.220  0.0053  0.0092 -0.0208
 1121CHOL    R513443  22.788  25.196   6.535  0.0202  0.0132 -0.0113
 1121CHOL    R613444  22.799  25.447   6.141  0.0485  0.0661  0.0232
 1121CHOL    C113445  22.990  25.497   5.843  0.0334  0.0583  0.0122
 1121CHOL    C213446  23.171  25.707   5.477  0.1179  0.0342 -0.1924
 1122CHOL   ROH13447  23.812   7.104   4.000  0.0338  0.1494 -0.0187
 1122CHOL    R113448  23.840   7.434   4.277  0.1048  0.0582  0.0838
 1122CHOL    R213449  23.717   7.113   4.335  0.0791  0.0520 -0.0027
 1122CHOL    R313450  23.812   7.519   4.695  0.1694 -0.0727  0.1154
 1122CHOL    R413451  23.750   7.161   4.640  0.1245 -0.0490  0.0084
 1122CHOL    R513452  23.969   7.104   4.346  0.0797  0.0219 -0.0390
 1122CHOL    R613453  23.948   7.292   4.774  0.1560 -0.1127  0.0246
 1122CHOL    C113454  23.725   7.346   5.048  0.1979 -0.1771  0.0715
 1122CHOL    C213455  23.746   7.671   5.304 -0.1714 -0.1254  0.2163
 1123CHOL   ROH13456  14.062  14.033   7.088  0.1026 -0.0060 -0.0638
 1123CHOL    R113457  13.977  13.884   6.692  0.1818 -0.0186 -0.0764
 1123CHOL    R213458  13.952  14.211   6.810  0.0803 -0.0286 -0.0696
 1123CHOL    R313459  13.904  14.023   6.294  0.1821 -0.0277 -0.0795
 1123CHOL    R413460  13.954  14.312   6.517  0.0808 -0.0197 -0.0664
 1123CHOL    R513461  14.194  14.165   6.757  0.0983  0.0398 -0.0473
 1123CHOL    R613462  14.098  14.221   6.303  0.1269  0.0258 -0.0551
 1123CHOL    C113463  13.856  14.362   6.081  0.1092 -0.0347 -0.0746
 1123CHOL    C213464  13.901  14.417   5.651  0.0600 -0.1431  0.1323
 1124CHOL   ROH13465  20.957   1.966   5.195 -0.1120 -0.1816  0.0145
 1124CHOL    R113466  21.149   2.094   5.560 -0.0959 -0.0519 -0.0389
 1124CHOL    R213467  21.255   2.143   5.232 -0.1314 -0.1321 -0.0625
 1124CHOL    R313468  21.460   2.353   5.698 -0.1170  0.0284 -0.1409
 1124CHOL    R413469  21.442   2.370   5.330 -0.1519 -0.0795 -0.1443
 1124CHOL    R513470  21.079   2.315   5.283 -0.1492 -0.1403 -0.0965
 1124CHOL    R613471  21.398   2.559   5.523 -0.1592 -0.0298 -0.1945
 1124CHOL    C113472  21.751   2.598   5.563 -0.1605  0.0278 -0.2371
 1124CHOL    C213473  22.126   2.697   5.782 -0.1150 -0.0881 -0.1399
 1125CHOL   ROH13474   0.723   9.300   7.480 -0.1605 -0.0113  0.0377
 1125CHOL    R113475   0.664   9.199   7.065 -0.0934  0.0814  0.0050
 1125CHOL    R213476   0.614   9.506   7.220 -0.1083  0.0495  0.0637
 1125CHOL    R313477   0.600   9.383   6.684 -0.0213  0.1668  0.0339
 1125CHOL    R413478   0.623   9.644   6.943 -0.0556  0.1097  0.0949
 1125CHOL    R513479   0.861   9.481   7.175 -0.1014  0.0501  0.1003
 1125CHOL    R613480   0.781   9.588   6.727 -0.0208  0.1508  0.1095
 1125CHOL    C113481   0.540   9.743   6.512  0.0218  0.2067  0.1020
 1125CHOL    C213482   0.470   9.770   6.083 -0.0896  0.0159 -0.2158
 1126CHOL   ROH13483  25.019  26.969   7.215  0.0783 -0.0605 -0.1044
 1126CHOL    R113484  24.908  27.162   6.846  0.1528  0.0680 -0.0604
 1126CHOL    R213485  25.173  26.944   6.903  0.0719 -0.0445 -0.1088
 1126CHOL    R313486  24.988  27.146   6.426  0.1505  0.1368 -0.0636
 1126CHOL    R413487  25.192  26.893   6.598  0.0554  0.0198 -0.1208
 1126CHOL    R513488  24.964  26.806   6.876  0.0207  0.0395 -0.1432
 1126CHOL    R613489  24.992  26.869   6.414  0.0480  0.1372 -0.1283
 1126CHOL    C113490  25.221  26.960   6.155  0.0840  0.1130 -0.1050
 1126CHOL    C213491  25.177  26.938   5.714  0.0513  0.2307 -0.0204
 1127CHOL   ROH13492  26.530  22.953   7.119  0.0506 -0.1262  0.1706
 1127CHOL    R113493  26.261  23.046   6.794  0.0129 -0.0873  0.2129
 1127CHOL    R213494  26.607  23.085   6.806  0.0130 -0.0799  0.1808
 1127CHOL    R313495  26.265  23.143   6.378 -0.0350 -0.0281  0.2261
 1127CHOL    R413496  26.611  23.101   6.496 -0.0210 -0.0360  0.1824
 1127CHOL    R513497  26.558  22.843   6.756  0.0142 -0.0744  0.1519
 1127CHOL    R613498  26.464  22.961   6.314 -0.0373 -0.0141  0.1787
 1127CHOL    C113499  26.518  23.219   6.073 -0.0701  0.0215  0.2093
 1127CHOL    C213500  26.525  23.473   5.698  0.1004  0.1019 -0.1077
 1128CHOL   ROH13501  21.340  14.601   6.492 -0.0293  0.1114 -0.1793
 1128CHOL    R113502  21.644  14.429   6.239  0.0684  0.1462 -0.0856
 1128CHOL    R213503  21.316  14.508   6.156  0.0704  0.0635 -0.1734
 1128CHOL    R313504  21.727  14.346   5.828  0.1841  0.1118 -0.0558
 1128CHOL    R413505  21.394  14.500   5.856  0.1431  0.0424 -0.1542
 1128CHOL    R513506  21.452  14.720   6.149  0.0253  0.0924 -0.1681
 1128CHOL    R613507  21.624  14.585   5.735  0.1531  0.0774 -0.1107
 1128CHOL    C113508  21.560  14.364   5.462  0.2664  0.0284 -0.0980
 1128CHOL    C213509  21.729  14.108   5.143  0.2407 -0.2721 -0.2367
 1129CHOL   ROH13510  20.581  26.343   4.972  0.1991  0.0625  0.0720
 1129CHOL    R113511  20.745  25.958   5.077  0.1950  0.0481  0.0258
 1129CHOL    R213512  20.895  26.213   4.894  0.1971  0.0676  0.0547
 1129CHOL    R313513  21.116  25.745   5.082  0.1925  0.0427 -0.0015
 1129CHOL    R413514  21.171  26.083   4.947  0.1958  0.0579  0.0377
 1129CHOL    R513515  20.915  26.270   5.138  0.1993  0.0387  0.0613
 1129CHOL    R613516  21.264  25.961   5.173  0.1957  0.0303  0.0228
 1129CHOL    C113517  21.503  25.782   4.976  0.1923  0.0503  0.0002
 1129CHOL    C213518  21.657  25.403   4.827  0.0024 -0.0491 -0.0615
 1130CHOL   ROH13519   1.129  27.508   4.064 -0.0125 -0.2929  0.1579
 1130CHOL    R113520   1.089  27.861   4.310 -0.0063 -0.1912  0.0149
 1130CHOL    R213521   1.215  27.548   4.400  0.0151 -0.1489  0.1343
 1130CHOL    R313522   1.216  28.018   4.687  0.0198 -0.0281 -0.0614
 1130CHOL    R413523   1.352  27.679   4.645  0.0309 -0.0402  0.0684
 1130CHOL    R513524   1.396  27.674   4.277 -0.0010 -0.1917  0.0659
 1130CHOL    R613525   1.475  27.922   4.666  0.0222 -0.0256 -0.0437
 1130CHOL    C113526   1.421  27.918   5.019  0.0533  0.1196 -0.0366
 1130CHOL    C213527   1.528  28.240   5.290  0.0859 -0.1424 -0.4669
 1131CHOL   ROH13528   7.454  24.198   5.860 -0.0123 -0.0340  0.3696
 1131CHOL    R113529   7.580  23.829   6.044 -0.0378 -0.1614  0.1352
 1131CHOL    R213530   7.710  23.983   5.760  0.0177  0.0465  0.2714
 1131CHOL    R313531   7.902  23.547   6.036 -0.0252 -0.1442  0.0042
 1131CHOL    R413532   7.968  23.814   5.791  0.0178  0.0346  0.2065
 1131CHOL    R513533   7.806  24.099   5.963 -0.0306 -0.0931  0.3756
 1131CHOL    R613534   8.100  23.740   6.018 -0.0284 -0.1217  0.1837
 1131CHOL    C113535   8.245  23.464   5.842  0.0203  0.0080  0.0181
 1131CHOL    C213536   8.490  23.056   5.847  0.1681 -0.0526  0.3178
 1132CHOL   ROH13537  16.749   9.685   7.007 -0.0540 -0.0516 -0.0455
 1132CHOL    R113538  16.632   9.891   6.647 -0.1000 -0.0718 -0.0422
 1132CHOL    R213539  16.884   9.977   6.871 -0.0585 -0.0699 -0.0893
 1132CHOL    R313540  16.768  10.197   6.380 -0.1249 -0.0999 -0.0873
 1132CHOL    R413541  17.011  10.157   6.654 -0.0827 -0.0938 -0.1235
 1132CHOL    R513542  16.972   9.795   6.720 -0.0938 -0.0865 -0.0901
 1132CHOL    R613543  17.033  10.115   6.385 -0.1289 -0.1154 -0.1240
 1132CHOL    C113544  17.063  10.468   6.333 -0.1160 -0.1211 -0.1554
 1132CHOL    C213545  17.132  10.707   5.979  0.2497  0.0644  0.0222
 1133CHOL   ROH13546  11.836   3.745   7.125  0.0664  0.0574  0.0601
 1133CHOL    R113547  11.758   4.060   6.841 -0.0055  0.0894  0.1151
 1133CHOL    R213548  11.994   3.805   6.821  0.0402  0.1359  0.0618
 1133CHOL    R313549  11.846   4.173   6.438 -0.0465  0.1711  0.1288
 1133CHOL    R413550  12.015   3.855   6.515  0.0158  0.1894  0.0687
 1133CHOL    R513551  11.771   3.710   6.753  0.0541  0.1059  0.0576
 1133CHOL    R613552  11.819   3.917   6.336 -0.0047  0.1825  0.0887
 1133CHOL    C113553  12.064   4.059   6.118 -0.0416  0.2629  0.0993
 1133CHOL    C213554  11.870   4.211   5.767 -0.1232  0.0185 -0.0289
 1134CHOL   ROH13555  15.238   2.164   4.159  0.0443  0.2116 -0.0997
 1134CHOL    R113556  14.981   2.038   4.481  0.2614 -0.0673 -0.0315
 1134CHOL    R213557  15.284   2.208   4.502  0.1026  0.2330 -0.1101
 1134CHOL    R313558  14.921   2.097   4.900  0.3256 -0.1558 -0.0095
 1134CHOL    R413559  15.211   2.295   4.790  0.1003  0.1413 -0.0826
 1134CHOL    R513560  15.104   2.376   4.445 -0.0823  0.0609 -0.0462
 1134CHOL    R613561  14.969   2.370   4.892  0.0539 -0.1047 -0.0062
 1134CHOL    C113562  15.082   2.283   5.220  0.2378 -0.0171 -0.0448
 1134CHOL    C213563  14.962   2.235   5.644 -0.1044 -0.2957  0.1796
 1135CHOL   ROH13564  25.994   6.682   4.117 -0.1200 -0.1523 -0.0567
 1135CHOL    R113565  25.626   6.771   4.325 -0.0669 -0.2456  0.0789
 1135CHOL    R213566  25.931   6.672   4.460  0.0321 -0.0887 -0.0262
 1135CHOL    R313567  25.477   6.845   4.719  0.0734 -0.2033  0.1246
 1135CHOL    R413568  25.839   6.778   4.736  0.1087 -0.0541 -0.0136
 1135CHOL    R513569  25.945   6.919   4.410 -0.0879 -0.0959 -0.0968
 1135CHOL    R613570  25.693   7.001   4.795  0.0452 -0.0968 -0.0089
 1135CHOL    C113571  25.593   6.853   5.105  0.2380 -0.0570  0.0738
 1135CHOL    C213572  25.398   6.911   5.487 -0.1816  0.0622 -0.0067
 1136CHOL   ROH13573   6.363   4.609   6.804 -0.1868  0.4049 -0.0387
 1136CHOL    R113574   6.400   4.485   6.392 -0.0053  0.1905  0.0399
 1136CHOL    R213575   6.170   4.707   6.530 -0.1639  0.1473 -0.1501
 1136CHOL    R313576   6.264   4.590   6.000  0.0469 -0.1036 -0.0598
 1136CHOL    R413577   6.114   4.819   6.247 -0.1453 -0.0427 -0.2305
 1136CHOL    R513578   6.387   4.831   6.496 -0.2202  0.2448 -0.1582
 1136CHOL    R613579   6.287   4.863   6.040 -0.1108 -0.0668 -0.2068
 1136CHOL    C113580   6.015   4.844   5.809 -0.0369 -0.3433 -0.2743
 1136CHOL    C213581   5.956   4.966   5.408  0.0093 -0.1533  0.2100
 1137CHOL   ROH13582   8.376  26.089   6.985 -0.0847 -0.0586 -0.1233
 1137CHOL    R113583   8.507  26.226   6.597  0.0138  0.1208 -0.0280
 1137CHOL    R213584   8.460  25.898   6.705  0.0255  0.0687 -0.1781
 1137CHOL    R313585   8.568  26.084   6.198  0.1534  0.2944 -0.0699
 1137CHOL    R413586   8.449  25.806   6.409  0.1271  0.1898 -0.2202
 1137CHOL    R513587   8.234  25.994   6.645  0.0303  0.0628 -0.2061
 1137CHOL    R613588   8.337  25.930   6.193  0.1752  0.2642 -0.2028
 1137CHOL    C113589   8.555  25.747   5.977  0.2657  0.3837 -0.2143
 1137CHOL    C213590   8.495  25.887   5.595 -0.1952  0.2455 -0.0366
 1138CHOL   ROH13591  14.247  12.350   7.062 -0.0026  0.3430  0.1136
 1138CHOL    R113592  14.082  12.168   6.708 -0.0729  0.2154  0.2108
 1138CHOL    R213593  14.250  12.471   6.736 -0.0094  0.1950  0.0577
 1138CHOL    R313594  14.090  12.204   6.282 -0.1064  0.0213  0.1929
 1138CHOL    R413595  14.302  12.466   6.430 -0.0395  0.0467  0.0544
 1138CHOL    R513596  14.422  12.287   6.731 -0.0467  0.1582  0.1243
 1138CHOL    R613597  14.362  12.254   6.268 -0.0975 -0.0389  0.1438
 1138CHOL    C113598  14.238  12.436   5.986 -0.0881 -0.1410  0.0734
 1138CHOL    C213599  14.283  12.343   5.539  0.0158 -0.0550  0.1857
 1139CHOL   ROH13600  12.569   3.106   7.339  0.1230 -0.0241  0.0187
 1139CHOL    R113601  12.275   3.009   7.040  0.1717 -0.2316  0.0368
 1139CHOL    R213602  12.572   3.186   7.000  0.0042  0.0544  0.0357
 1139CHOL    R313603  12.222   3.005   6.615  0.1190 -0.1862  0.0429
 1139CHOL    R413604  12.558   3.134   6.695  0.0127  0.1090  0.0258
 1139CHOL    R513605  12.628   2.940   7.003  0.2337  0.1036 -0.0260
 1139CHOL    R613606  12.477   2.910   6.561  0.2026  0.0611 -0.0126
 1139CHOL    C113607  12.407   3.109   6.272 -0.0207  0.0632  0.0404
 1139CHOL    C213608  12.239   3.277   5.902 -0.0747  0.0679 -0.0331
 1140CHOL   ROH13609   3.855   6.265   6.909  0.0305 -0.1545 -0.0500
 1140CHOL    R113610   4.175   6.148   6.644  0.0264 -0.1252 -0.0679
 1140CHOL    R213611   3.833   6.103   6.601  0.0210 -0.0533 -0.1030
 1140CHOL    R313612   4.242   6.013   6.244  0.0270 -0.0099 -0.1070
 1140CHOL    R413613   3.880   6.059   6.298  0.0315  0.0345 -0.1144
 1140CHOL    R513614   3.888   6.341   6.538  0.0655 -0.0425 -0.0245
 1140CHOL    R613615   4.056   6.184   6.131  0.0629  0.0578 -0.0643
 1140CHOL    C113616   4.044   5.903   5.910  0.0280  0.1294 -0.1541
 1140CHOL    C213617   4.286   6.191   5.671  0.2547  0.0356  0.1833
 1141CHOL   ROH13618   2.074   0.738   4.322 -0.1537 -0.1015 -0.1154
 1141CHOL    R113619   2.420   0.483   4.289 -0.0378  0.0458 -0.0474
 1141CHOL    R213620   2.207   0.522   4.561 -0.1404 -0.0856 -0.1084
 1141CHOL    R313621   2.612   0.157   4.488  0.0337  0.0922 -0.0397
 1141CHOL    R413622   2.311   0.253   4.676 -0.0663 -0.0617 -0.1190
 1141CHOL    R513623   2.096   0.366   4.396 -0.0245 -0.1050 -0.1689
 1141CHOL    R613624   2.377   0.023   4.544  0.0699 -0.0140 -0.1359
 1141CHOL    C113625   2.586  -0.073   4.818  0.0226  0.0279 -0.0850
 1141CHOL    C213626   2.895  -0.384   4.935 -0.1742  0.2153 -0.1343
 1142CHOL   ROH13627   3.688   1.373   7.461  0.0841  0.1030 -0.1956
 1142CHOL    R113628   3.738   1.365   7.032  0.0560 -0.0755 -0.1964
 1142CHOL    R213629   3.700   1.095   7.249 -0.0151  0.0184 -0.0915
 1142CHOL    R313630   3.703   1.099   6.699 -0.0469 -0.1918 -0.0939
 1142CHOL    R413631   3.620   0.917   7.008 -0.0852 -0.0490 -0.0194
 1142CHOL    R513632   3.471   1.193   7.205  0.0126  0.0730 -0.1145
 1142CHOL    R613633   3.470   0.980   6.789 -0.0790 -0.0852 -0.0341
 1142CHOL    C113634   3.626   0.714   6.608 -0.1728 -0.2033  0.0569
 1142CHOL    C213635   3.648   0.557   6.206  0.1288 -0.2382  0.1961
 1143CHOL   ROH13636  10.992  17.659   3.844  0.2307  0.1657  0.1706
 1143CHOL    R113637  11.066  17.412   4.190  0.0889  0.1302  0.1767
 1143CHOL    R213638  10.967  17.746   4.181  0.0429  0.1166  0.1708
 1143CHOL    R313639  11.006  17.407   4.613 -0.1298  0.0641  0.1458
 1143CHOL    R413640  10.873  17.722   4.475 -0.1063  0.0625  0.1197
 1143CHOL    R513641  10.763  17.603   4.142  0.0839  0.0906  0.0454
 1143CHOL    R613642  10.750  17.513   4.601 -0.1403  0.0268  0.0278
 1143CHOL    C113643  10.868  17.635   4.916 -0.3216  0.0021  0.1061
 1143CHOL    C213644  11.008  17.587   5.345  0.1508  0.1311  0.2698
 1144CHOL   ROH13645  23.180  18.236   6.798  0.3877  0.1015  0.1766
 1144CHOL    R113646  23.014  18.458   6.467  0.2248  0.0470  0.2209
 1144CHOL    R213647  23.323  18.299   6.486  0.2698  0.1223  0.1263
 1144CHOL    R313648  23.078  18.531   6.051  0.0699  0.0443  0.1960
 1144CHOL    R413649  23.341  18.306   6.177  0.1663  0.1130  0.1199
 1144CHOL    R513650  23.149  18.124   6.436  0.2953  0.0777  0.1918
 1144CHOL    R613651  23.143  18.269   5.991  0.1137  0.0572  0.1864
 1144CHOL    C113652  23.336  18.451   5.751 -0.0089  0.0932  0.1144
 1144CHOL    C213653  23.353  18.584   5.339  0.0029 -0.1277 -0.1686
 1145CHOL   ROH13654  22.186   9.446   7.021  0.1192 -0.0368 -0.0199
 1145CHOL    R113655  22.163   9.192   6.673  0.2143  0.1051 -0.1306
 1145CHOL    R213656  22.062   9.524   6.705 -0.0224  0.0190  0.0485
 1145CHOL    R313657  22.093   9.213   6.252  0.0879  0.2486 -0.1034
 1145CHOL    R413658  22.066   9.551   6.396 -0.1231  0.1644  0.0589
 1145CHOL    R513659  22.312   9.521   6.671 -0.0276  0.2184 -0.0202
 1145CHOL    R613660  22.241   9.444   6.215 -0.0913  0.3757 -0.0373
 1145CHOL    C113661  21.992   9.473   5.960 -0.1806  0.3112  0.0419
 1145CHOL    C213662  22.113   9.357   5.586 -0.0672  0.2632  0.0666
 1146CHOL   ROH13663   7.888  10.626   3.679 -0.0571 -0.0876 -0.0777
 1146CHOL    R113664   7.800  10.480   4.076 -0.0275 -0.1575 -0.0966
 1146CHOL    R213665   7.653  10.746   3.907  0.0559 -0.0397  0.0145
 1146CHOL    R313666   7.507  10.516   4.385  0.0656 -0.1051 -0.0140
 1146CHOL    R413667   7.413  10.733   4.103  0.0977  0.0189  0.0699
 1146CHOL    R513668   7.548  10.533   3.822 -0.0662  0.0328 -0.0201
 1146CHOL    R613669   7.291  10.515   4.212  0.0214  0.0456  0.0386
 1146CHOL    C113670   7.171  10.718   4.482  0.1838  0.0276  0.1256
 1146CHOL    C213671   6.994  10.721   4.886 -0.1773  0.0403 -0.0756
 1147CHOL   ROH13672  15.475  14.903   7.233 -0.1369  0.0995 -0.0936
 1147CHOL    R113673  15.706  14.970   6.876  0.0221 -0.0117 -0.0128
 1147CHOL    R213674  15.389  14.830   6.903 -0.0505  0.1285 -0.1226
 1147CHOL    R313675  15.666  14.975   6.450  0.1773 -0.0049 -0.0280
 1147CHOL    R413676  15.343  14.886   6.602  0.0822  0.1413 -0.1414
 1147CHOL    R513677  15.365  15.081   6.916  0.0552  0.1400 -0.1386
 1147CHOL    R613678  15.419  15.101   6.452  0.2310  0.1041 -0.1203
 1147CHOL    C113679  15.400  14.900   6.157  0.2490  0.1047 -0.1219
 1147CHOL    C213680  15.524  14.968   5.748 -0.0615  0.1478  0.1921
 1148CHOL   ROH13681  18.615   3.822   3.786  0.1087 -0.0297 -0.0667
 1148CHOL    R113682  18.715   4.120   4.082  0.0573  0.0499 -0.1290
 1148CHOL    R213683  18.771   3.777   4.094  0.1160  0.0620 -0.0566
 1148CHOL    R313684  18.949   4.170   4.436  0.0480  0.1646 -0.1388
 1148CHOL    R413685  18.983   3.824   4.316  0.1074  0.1449 -0.0658
 1148CHOL    R513686  18.952   3.881   3.952  0.0986  0.0629 -0.0780
 1148CHOL    R613687  19.165   4.026   4.342  0.0730  0.1816 -0.1078
 1148CHOL    C113688  19.181   3.965   4.694  0.0826  0.2585 -0.0947
 1148CHOL    C213689  19.477   4.249   4.871  0.2558 -0.3325  0.3569
 1149CHOL   ROH13690   0.358  27.487   7.096  0.2324  0.2301  0.0704
 1149CHOL    R113691   0.022  27.581   6.843  0.1697  0.1431  0.1206
 1149CHOL    R213692   0.330  27.449   6.751  0.1581  0.1398  0.0860
 1149CHOL    R313693  -0.124  27.514   6.446  0.0857  0.0318  0.1695
 1149CHOL    R413694   0.205  27.353   6.484  0.1049  0.0632  0.1381
 1149CHOL    R513695   0.189  27.261   6.842  0.1905  0.1539  0.1658
 1149CHOL    R613696  -0.043  27.250   6.437  0.1010  0.0345  0.2197
 1149CHOL    C113697  -0.018  27.349   6.094  0.0183 -0.0516  0.1882
 1149CHOL    C213698  -0.098  27.379   5.673 -0.1623 -0.0842 -0.2602
 1150CHOL   ROH13699   2.005  24.736   7.598  0.0979 -0.2160  0.0373
 1150CHOL    R113700   2.105  24.457   7.285  0.0344 -0.1710 -0.0238
 1150CHOL    R213701   1.983  24.781   7.253  0.0483 -0.1584  0.0476
 1150CHOL    R313702   2.171  24.441   6.863 -0.0303 -0.1061 -0.0365
 1150CHOL    R413703   2.083  24.785   6.959  0.0042 -0.1163  0.0330
 1150CHOL    R513704   2.231  24.795   7.299  0.0561 -0.1804  0.0125
 1150CHOL    R613705   2.311  24.679   6.853 -0.0179 -0.1123 -0.0187
 1150CHOL    C113706   2.155  24.669   6.531 -0.0671 -0.0508  0.0030
 1150CHOL    C213707   2.184  24.633   6.101  0.2351 -0.2196  0.0249
 1151CHOL   ROH13708   7.713   0.285   4.041 -0.1407  0.0942 -0.0680
 1151CHOL    R113709   7.817   0.281   4.460 -0.2264  0.0055 -0.0474
 1151CHOL    R213710   7.768   0.557   4.253 -0.1205  0.0489 -0.0151
 1151CHOL    R313711   7.840   0.541   4.799 -0.2345 -0.0521 -0.0026
 1151CHOL    R413712   7.731   0.734   4.505 -0.1302  0.0188  0.0046
 1151CHOL    R513713   7.542   0.472   4.325 -0.1549  0.0904 -0.0741
 1151CHOL    R613714   7.606   0.675   4.740 -0.1915  0.0115 -0.0296
 1151CHOL    C113715   7.799   0.928   4.904 -0.1658 -0.0585  0.0484
 1151CHOL    C213716   7.894   1.119   5.309 -0.0430  0.0113  0.1312
 1152CHOL   ROH13717  15.439  18.336   6.835  0.0026  0.0322 -0.0559
 1152CHOL    R113718  15.616  18.418   6.450  0.0230 -0.0717 -0.0688
 1152CHOL    R213719  15.288  18.326   6.520 -0.0038  0.0349 -0.0529
 1152CHOL    R313720  15.507  18.491   6.043  0.0402 -0.0936 -0.0774
 1152CHOL    R413721  15.203  18.432   6.242  0.0246  0.0232 -0.0661
 1152CHOL    R513722  15.312  18.573   6.566  0.0699  0.0342 -0.0861
 1152CHOL    R613723  15.291  18.652   6.106  0.0884 -0.0208 -0.0964
 1152CHOL    C113724  15.187  18.502   5.798  0.0408 -0.0313 -0.0753
 1152CHOL    C213725  15.102  18.429   5.362  0.1502  0.3814 -0.4187
 1153CHOL   ROH13726  26.485  14.614   7.308 -0.1327  0.0043  0.0007
 1153CHOL    R113727  26.647  14.452   6.942  0.0562  0.2197 -0.0135
 1153CHOL    R213728  26.385  14.678   6.980 -0.1134  0.0236 -0.0014
 1153CHOL    R313729  26.636  14.513   6.519  0.0968  0.3297  0.0011
 1153CHOL    R413730  26.417  14.759   6.683 -0.1122  0.1294  0.0273
 1153CHOL    R513731  26.601  14.805   7.001 -0.2073  0.1730  0.0765
 1153CHOL    R613732  26.645  14.789   6.536 -0.1032  0.3329  0.0800
 1153CHOL    C113733  26.457  14.737   6.236 -0.0077  0.2814  0.0285
 1153CHOL    C213734  26.605  14.714   5.817  0.2153 -0.3034  0.0466
 1154CHOL   ROH13735   6.571  24.190   4.303 -0.1083 -0.0006 -0.0463
 1154CHOL    R113736   6.295  24.184   4.635 -0.0817 -0.0104 -0.0242
 1154CHOL    R213737   6.640  24.142   4.642 -0.0827 -0.0242 -0.0549
 1154CHOL    R313738   6.288  24.196   5.062 -0.0465 -0.0365 -0.0230
 1154CHOL    R413739   6.637  24.206   4.945 -0.0556 -0.0428 -0.0507
 1154CHOL    R513740   6.592  24.389   4.627 -0.0744 -0.0213 -0.0356
 1154CHOL    R613741   6.487  24.387   5.082 -0.0374 -0.0455 -0.0272
 1154CHOL    C113742   6.533  24.198   5.382 -0.0204 -0.0659 -0.0426
 1154CHOL    C213743   6.544  24.359   5.789  0.1011  0.0019 -0.1801
 1155CHOL   ROH13744  26.369  22.015   3.779 -0.1654 -0.1179 -0.0961
 1155CHOL    R113745  26.016  21.994   4.026 -0.0765 -0.1109  0.0325
 1155CHOL    R213746  26.349  21.971   4.124 -0.0408 -0.1186 -0.0885
 1155CHOL    R313747  25.896  22.007   4.437  0.0729 -0.1096  0.0763
 1155CHOL    R413748  26.263  22.036   4.415  0.0662 -0.1176 -0.0568
 1155CHOL    R513749  26.293  22.215   4.093 -0.0469 -0.1174 -0.0675
 1155CHOL    R613750  26.072  22.209   4.505  0.1025 -0.1139  0.0132
 1155CHOL    C113751  26.048  22.024   4.810  0.2092 -0.1143  0.0217
 1155CHOL    C213752  25.782  22.027   5.170 -0.3327  0.3315  0.1140
 1156CHOL   ROH13753   8.079   5.432   6.669  0.1288  0.1081 -0.0376
 1156CHOL    R113754   8.199   5.700   6.353  0.0760  0.1239 -0.0444
 1156CHOL    R213755   8.019   5.403   6.327  0.0977  0.1096 -0.0323
 1156CHOL    R313756   8.124   5.781   5.940  0.0289  0.1255 -0.0355
 1156CHOL    R413757   7.922   5.492   6.046  0.0630  0.1070 -0.0212
 1156CHOL    R513758   7.859   5.585   6.399  0.0898  0.0952 -0.0133
 1156CHOL    R613759   7.850   5.740   5.958  0.0340  0.1028 -0.0096
 1156CHOL    C113760   7.920   5.640   5.622  0.0094  0.1148 -0.0183
 1156CHOL    C213761   8.245   5.618   5.337 -0.1828  0.2321 -0.4044
 1157CHOL   ROH13762  19.838  25.391   7.101 -0.0550  0.1109 -0.0044
 1157CHOL    R113763  19.806  25.145   6.748  0.0260  0.0998 -0.0040
 1157CHOL    R213764  19.719  25.480   6.785 -0.0665  0.0767 -0.0098
 1157CHOL    R313765  19.740  25.177   6.326  0.0344  0.0791 -0.0069
 1157CHOL    R413766  19.726  25.512   6.477 -0.0629  0.0765 -0.0098
 1157CHOL    R513767  19.969  25.467   6.753 -0.0617  0.1443  0.0004
 1157CHOL    R613768  19.898  25.402   6.296 -0.0255  0.1216 -0.0021
 1157CHOL    C113769  19.652  25.446   6.039 -0.0271  0.0532 -0.0123
 1157CHOL    C213770  19.571  25.508   5.616  0.1216  0.0684 -0.0096
 1158CHOL   ROH13771  14.960   8.750   4.015 -0.1080 -0.3106 -0.0865
 1158CHOL    R113772  14.873   8.764   4.437  0.0104 -0.1249 -0.0674
 1158CHOL    R213773  15.137   8.604   4.278 -0.0719 -0.2514 -0.0777
 1158CHOL    R313774  15.052   8.679   4.816  0.0928 -0.0207 -0.0826
 1158CHOL    R413775  15.289   8.593   4.548 -0.0009 -0.1828 -0.1144
 1158CHOL    R513776  15.195   8.849   4.297 -0.0069 -0.2573 -0.1886
 1158CHOL    R613777  15.301   8.779   4.747  0.0987 -0.1077 -0.1896
 1158CHOL    C113778  15.385   8.522   4.981  0.0998 -0.0375 -0.1124
 1158CHOL    C213779  15.264   8.258   5.307  0.3533 -0.0699  0.1948
 1159CHOL   ROH13780  25.600   6.139   7.383  0.0015 -0.0573 -0.1127
 1159CHOL    R113781  25.581   6.306   6.985 -0.1719 -0.0298 -0.0934
 1159CHOL    R213782  25.780   6.044   7.099  0.0119  0.0822 -0.1532
 1159CHOL    R313783  25.704   6.224   6.584 -0.1895  0.0858 -0.1230
 1159CHOL    R413784  25.823   5.955   6.805  0.0173  0.1370 -0.1693
 1159CHOL    R513785  25.549   5.953   7.055  0.0601 -0.0579 -0.1217
 1159CHOL    R613786  25.646   5.954   6.597 -0.0188  0.0471 -0.1386
 1159CHOL    C113787  25.919   5.961   6.367 -0.0621  0.2399 -0.1856
 1159CHOL    C213788  26.012   6.053   5.968 -0.1687 -0.0682  0.2277
 1160CHOL   ROH13789  23.017   5.853   4.994 -0.0121  0.1168  0.1958
 1160CHOL    R113790  22.727   5.692   5.269 -0.1128  0.0232  0.0370
 1160CHOL    R213791  22.854   5.544   4.981  0.1077  0.0562  0.1160
 1160CHOL    R313792  22.533   5.324   5.370 -0.0360 -0.0438 -0.0581
 1160CHOL    R413793  22.759   5.268   5.085  0.1493  0.0257  0.0736
 1160CHOL    R513794  23.024   5.514   5.166  0.0134  0.1272  0.2152
 1160CHOL    R613795  22.760   5.169   5.340  0.0393  0.0381  0.0793
 1160CHOL    C113796  22.500   4.940   5.251  0.1736 -0.0620 -0.0604
 1160CHOL    C213797  22.308   4.585   5.454 -0.2019 -0.1034  0.0657
 1161CHOL   ROH13798  27.261   5.244   5.317 -0.0841  0.0286 -0.1028
 1161CHOL    R113799  27.255   5.278   5.747 -0.1024  0.1381 -0.1114
 1161CHOL    R213800  26.993   5.191   5.535 -0.0744  0.0114 -0.0949
 1161CHOL    R313801  27.013   5.178   6.085 -0.0821  0.1586 -0.0908
 1161CHOL    R413802  26.843   5.069   5.778 -0.0461  0.0325 -0.0666
 1161CHOL    R513803  27.138   4.987   5.569 -0.0188  0.0594 -0.0391
 1161CHOL    R613804  26.942   4.929   5.990 -0.0116  0.1141 -0.0280
 1161CHOL    C113805  26.655   5.020   6.183 -0.0408  0.0853 -0.0577
 1161CHOL    C213806  26.563   4.907   6.610  0.3641 -0.1543 -0.0326
 1162CHOL   ROH13807   5.253  13.343   6.969  0.2845 -0.0157 -0.0239
 1162CHOL    R113808   5.182  13.237   6.557  0.1741 -0.0465  0.0029
 1162CHOL    R213809   5.325  13.529   6.682  0.2178 -0.0417 -0.0576
 1162CHOL    R313810   5.286  13.359   6.160  0.0766 -0.0827 -0.0341
 1162CHOL    R413811   5.445  13.585   6.403  0.1478 -0.0690 -0.0936
 1162CHOL    R513812   5.502  13.349   6.682  0.2108 -0.0484 -0.0887
 1162CHOL    R613813   5.551  13.411   6.221  0.0944 -0.0878 -0.1067
 1162CHOL    C113814   5.486  13.645   5.959  0.0358 -0.1067 -0.1091
 1162CHOL    C213815   5.492  13.556   5.514  0.0843 -0.0546 -0.2424
 1163CHOL   ROH13816   3.908  24.184   4.326 -0.2347  0.1844  0.0806
 1163CHOL    R113817   4.021  24.171   4.742 -0.1430  0.1726  0.0557
 1163CHOL    R213818   3.760  24.349   4.595 -0.2518  0.0807  0.1354
 1163CHOL    R313819   3.873  24.278   5.129 -0.1104  0.0518  0.1020
 1163CHOL    R413820   3.627  24.377   4.874 -0.2071 -0.0182  0.1672
 1163CHOL    R513821   3.685  24.110   4.624 -0.1412  0.0429  0.1164
 1163CHOL    R613822   3.614  24.197   5.078 -0.0859 -0.0546  0.1440
 1163CHOL    C113823   3.565  24.464   5.310 -0.1555 -0.1095  0.1930
 1163CHOL    C213824   3.518  24.611   5.708 -0.2036 -0.3114  0.2025
 1164CHOL   ROH13825   0.242  15.759   5.117 -0.0476 -0.0712  0.0217
 1164CHOL    R113826   0.649  15.620   5.157 -0.0349 -0.0638 -0.0795
 1164CHOL    R213827   0.534  15.911   5.003 -0.0739 -0.0365  0.0002
 1164CHOL    R313828   1.051  15.757   5.112 -0.0482 -0.0391 -0.1240
 1164CHOL    R413829   0.820  16.028   5.022 -0.0750 -0.0294 -0.0270
 1164CHOL    R513830   0.540  15.952   5.252 -0.0309 -0.0873  0.0077
 1164CHOL    R613831   1.004  16.006   5.223 -0.0381 -0.0635 -0.0644
 1164CHOL    C113832   1.266  16.075   4.990 -0.0824 -0.0058 -0.0975
 1164CHOL    C213833   1.672  16.007   4.826  0.0767  0.3423  0.2539
 1165CHOL   ROH13834  19.689   2.685   3.961 -0.1499 -0.0365  0.0568
 1165CHOL    R113835  19.805   2.726   4.374 -0.0417 -0.0409  0.0273
 1165CHOL    R213836  20.008   2.662   4.099 -0.1019  0.0487 -0.0384
 1165CHOL    R313837  20.152   2.776   4.618  0.0146  0.0428 -0.0691
 1165CHOL    R413838  20.254   2.753   4.265 -0.0811  0.1086 -0.1013
 1165CHOL    R513839  19.959   2.910   4.105 -0.1770  0.0333 -0.0005
 1165CHOL    R613840  20.275   2.955   4.447 -0.0908  0.0975 -0.0879
 1165CHOL    C113841  20.555   2.791   4.597  0.0043  0.1693 -0.1851
 1165CHOL    C213842  20.703   2.782   5.012 -0.0297 -0.0276  0.2164
 1166CHOL   ROH13843  15.557  25.406   7.458  0.0100 -0.0737 -0.0430
 1166CHOL    R113844  15.553  25.217   7.070 -0.0413 -0.0074 -0.0749
 1166CHOL    R213845  15.527  25.556   7.145  0.1523 -0.0029 -0.0234
 1166CHOL    R313846  15.584  25.312   6.654  0.0845  0.0433 -0.0543
 1166CHOL    R413847  15.604  25.622   6.852  0.2406 -0.0008  0.0001
 1166CHOL    R513848  15.771  25.492   7.156  0.1124 -0.1530  0.0063
 1166CHOL    R613849  15.785  25.499   6.689  0.1932 -0.0838  0.0096
 1166CHOL    C113850  15.612  25.626   6.403  0.3163  0.0693  0.0018
 1166CHOL    C213851  15.701  25.716   5.981  0.3904  0.2969 -0.4369
 1167CHOL   ROH13852  12.343  26.154   7.456  0.0834 -0.2807 -0.1748
 1167CHOL    R113853  12.297  25.991   7.059 -0.0148 -0.2313 -0.1840
 1167CHOL    R213854  12.306  26.326   7.155  0.1248 -0.2416 -0.1577
 1167CHOL    R313855  12.309  26.111   6.648 -0.0035 -0.2028 -0.1754
 1167CHOL    R413856  12.369  26.404   6.862  0.1304 -0.2429 -0.1569
 1167CHOL    R513857  12.543  26.242   7.145  0.0913 -0.3342 -0.1849
 1167CHOL    R613858  12.527  26.278   6.679  0.0653 -0.2907 -0.1807
 1167CHOL    C113859  12.348  26.437   6.414  0.1044 -0.1988 -0.1525
 1167CHOL    C213860  12.328  26.226   6.039 -0.2280  0.0708  0.4628
 1168CHOL   ROH13861  22.944   0.180   6.992 -0.0363  0.1890 -0.1427
 1168CHOL    R113862  22.651   0.124   6.680 -0.0934  0.0922 -0.0726
 1168CHOL    R213863  22.986   0.212   6.647 -0.0804  0.0105 -0.1658
 1168CHOL    R313864  22.623   0.079   6.256 -0.1641 -0.1120 -0.0476
 1168CHOL    R413865  22.976   0.126   6.350 -0.1409 -0.1347 -0.1227
 1168CHOL    R513866  22.974  -0.038   6.682 -0.1247  0.0290 -0.0407
 1168CHOL    R613867  22.845  -0.085   6.235 -0.1995 -0.1664  0.0002
 1168CHOL    C113868  22.847   0.086   5.921 -0.2115 -0.3215 -0.0853
 1168CHOL    C213869  22.600   0.118   5.552 -0.4413  0.0818 -0.0600
 1169CHOL   ROH13870  10.621  12.935   6.950 -0.1135  0.1887 -0.0480
 1169CHOL    R113871  10.999  12.919   6.742 -0.0977 -0.0361 -0.0047
 1169CHOL    R213872  10.680  12.956   6.607 -0.0583  0.1964 -0.0382
 1169CHOL    R313873  11.169  12.996   6.357  0.0001 -0.0971  0.0261
 1169CHOL    R413874  10.807  13.064   6.346  0.0456  0.1472 -0.0083
 1169CHOL    R513875  10.755  13.181   6.693  0.0827  0.1354  0.0013
 1169CHOL    R613876  11.024  13.227   6.314  0.1601  0.0073  0.0399
 1169CHOL    C113877  11.067  13.102   5.982  0.1156  0.0229  0.0281
 1169CHOL    C213878  11.264  12.837   5.706  0.0377  0.0484  0.0128
 1170CHOL   ROH13879  19.088   2.414   7.072 -0.0085 -0.0401  0.0355
 1170CHOL    R113880  19.392   2.334   6.777 -0.0862 -0.0981 -0.0293
 1170CHOL    R213881  19.049   2.287   6.750 -0.1045 -0.0007  0.0314
 1170CHOL    R313882  19.436   2.246   6.361 -0.1891 -0.0735 -0.0456
 1170CHOL    R413883  19.078   2.279   6.441 -0.1653  0.0183  0.0249
 1170CHOL    R513884  19.097   2.531   6.711 -0.0443 -0.0107  0.0442
 1170CHOL    R613885  19.242   2.426   6.279 -0.1553 -0.0124  0.0072
 1170CHOL    C113886  19.220   2.171   6.029 -0.2728  0.0156 -0.0116
 1170CHOL    C213887  19.459   1.832   5.943 -0.1511  0.1030  0.0394
 1171CHOL   ROH13888  25.778   6.274   4.564  0.1092  0.1578 -0.0721
 1171CHOL    R113889  25.744   6.109   4.960  0.1036  0.0982 -0.0973
 1171CHOL    R213890  25.625   6.414   4.844  0.0545  0.0905 -0.0679
 1171CHOL    R313891  25.534   6.169   5.328  0.0563  0.0081 -0.1092
 1171CHOL    R413892  25.433   6.428   5.087  0.0286  0.0204 -0.0844
 1171CHOL    R513893  25.463   6.235   4.772  0.0967  0.0680 -0.1073
 1171CHOL    R613894  25.292   6.227   5.207  0.0563 -0.0234 -0.1245
 1171CHOL    C113895  25.275   6.421   5.507 -0.0106 -0.0666 -0.1002
 1171CHOL    C213896  25.167   6.518   5.924 -0.1823 -0.2662  0.0322
 1172CHOL   ROH13897   5.637   1.438   7.365  0.1821 -0.1854  0.1382
 1172CHOL    R113898   5.580   1.580   6.961  0.1210 -0.0347  0.1990
 1172CHOL    R213899   5.662   1.258   7.067  0.1619 -0.0688  0.0656
 1172CHOL    R313900   5.528   1.434   6.563  0.0856  0.1141  0.1485
 1172CHOL    R413901   5.570   1.149   6.792  0.1383  0.0291  0.0341
 1172CHOL    R513902   5.413   1.289   7.096  0.1627 -0.1016  0.1077
 1172CHOL    R613903   5.360   1.227   6.636  0.1127  0.0710  0.0892
 1172CHOL    C113904   5.525   1.092   6.348  0.0898  0.1958  0.0171
 1172CHOL    C213905   5.524   1.019   5.910  0.0195 -0.4763 -0.0995
 1173CHOL   ROH13906  12.706  11.660   4.770 -0.1379 -0.0257  0.0476
 1173CHOL    R113907  12.818  11.798   5.163 -0.4158 -0.0842  0.1496
 1173CHOL    R213908  12.787  11.470   5.051 -0.1032 -0.0692  0.0084
 1173CHOL    R313909  12.987  11.656   5.530 -0.4550 -0.0885  0.1661
 1173CHOL    R413910  12.958  11.376   5.292 -0.1281 -0.0231  0.0443
 1173CHOL    R513911  13.010  11.558   4.974 -0.1397  0.1426  0.1360
 1173CHOL    R613912  13.175  11.495   5.407 -0.2712  0.1106  0.1819
 1173CHOL    C113913  13.111  11.318   5.711 -0.2574 -0.0595  0.0870
 1173CHOL    C213914  13.124  11.337   6.166 -0.2156 -0.0597  0.3177
 1174CHOL   ROH13915   6.475  14.806   6.825  0.1122 -0.0904  0.0334
 1174CHOL    R113916   6.664  15.035   6.511  0.0479 -0.0015  0.0588
 1174CHOL    R213917   6.463  14.753   6.480  0.1069 -0.0404  0.0257
 1174CHOL    R313918   6.657  15.085   6.087  0.0164  0.0620  0.0668
 1174CHOL    R413919   6.416  14.824   6.183  0.0770 -0.0048  0.0389
 1174CHOL    R513920   6.313  14.953   6.514  0.0655 -0.0776  0.0637
 1174CHOL    R613921   6.382  15.069   6.067  0.0187  0.0059  0.0780
 1174CHOL    C113922   6.488  14.934   5.753  0.0324  0.0768  0.0520
 1174CHOL    C213923   6.706  14.938   5.391 -0.3024  0.0855 -0.2014
 1175CHOL   ROH13924  15.846  24.039   7.169 -0.1771 -0.1345  0.1748
 1175CHOL    R113925  15.626  24.009   6.800 -0.0529 -0.0267  0.0911
 1175CHOL    R213926  15.969  23.971   6.850 -0.0737 -0.0746  0.2013
 1175CHOL    R313927  15.672  23.875   6.396  0.0725  0.0605  0.0760
 1175CHOL    R413928  15.989  23.825   6.577  0.0047 -0.0146  0.1744
 1175CHOL    R513929  15.856  23.756   6.916 -0.1202 -0.0778  0.1133
 1175CHOL    R613930  15.815  23.648   6.463  0.0249  0.0299  0.0738
 1175CHOL    C113931  15.947  23.728   6.141  0.1453  0.0895  0.1373
 1175CHOL    C213932  15.967  23.692   5.698  0.0538 -0.3137  0.0483
 1176CHOL   ROH13933  14.880  13.035   6.900 -0.0675  0.2914 -0.0386
 1176CHOL    R113934  15.034  13.310   6.605  0.0694  0.1213 -0.1276
 1176CHOL    R213935  14.922  12.984   6.558 -0.1984  0.1981 -0.0414
 1176CHOL    R313936  15.062  13.361   6.182 -0.0034  0.0253 -0.1443
 1176CHOL    R413937  14.891  13.043   6.255 -0.2331  0.1690 -0.0436
 1176CHOL    R513938  14.720  13.135   6.570 -0.0786  0.3586 -0.0129
 1176CHOL    R613939  14.805  13.271   6.131 -0.0892  0.2158 -0.0597
 1176CHOL    C113940  14.980  13.174   5.834 -0.2427  0.0269 -0.0903
 1176CHOL    C213941  14.989  13.390   5.468  0.1216  0.0405  0.0186
 1177CHOL   ROH13942  12.116  25.678   4.047  0.1963  0.2113 -0.1369
 1177CHOL    R113943  12.425  25.745   4.340  0.0956  0.0657  0.0042
 1177CHOL    R213944  12.087  25.824   4.363  0.1064  0.1486 -0.1156
 1177CHOL    R313945  12.476  25.849   4.752 -0.0441 -0.0391  0.0485
 1177CHOL    R413946  12.117  25.845   4.670 -0.0128  0.0722 -0.0983
 1177CHOL    R513947  12.113  25.578   4.414  0.0216  0.1301 -0.1592
 1177CHOL    R613948  12.265  25.692   4.841 -0.1215 -0.0047 -0.0713
 1177CHOL    C113949  12.266  25.960   5.078 -0.1479 -0.0575 -0.0114
 1177CHOL    C213950  12.218  26.153   5.490 -0.2366  0.1247 -0.1578
 1178CHOL   ROH13951  20.294  23.580   5.566  0.1481  0.1495  0.1062
 1178CHOL    R113952  20.508  23.626   5.938  0.0328  0.1126  0.1779
 1178CHOL    R213953  20.239  23.813   5.821  0.0874  0.1426  0.0997
 1178CHOL    R313954  20.479  23.823   6.316 -0.0711  0.0978  0.1780
 1178CHOL    R413955  20.188  23.912   6.110  0.0033  0.1340  0.0878
 1178CHOL    R513956  20.149  23.598   5.917  0.0365  0.1465  0.0607
 1178CHOL    R613957  20.208  23.776   6.346 -0.0852  0.1213  0.0884
 1178CHOL    C113958  20.250  24.085   6.519 -0.1128  0.1091  0.1164
 1178CHOL    C213959  20.347  24.160   6.931 -0.0396  0.0673  0.2139
 1179CHOL   ROH13960   9.894   1.525   6.716 -0.2982 -0.0182 -0.0719
 1179CHOL    R113961  10.124   1.442   6.361 -0.0489 -0.0389  0.0917
 1179CHOL    R213962   9.947   1.731   6.440 -0.1428 -0.0516 -0.0679
 1179CHOL    R313963  10.291   1.639   6.020  0.1513 -0.0661  0.1727
 1179CHOL    R413964  10.111   1.885   6.226 -0.0216 -0.0604  0.0179
 1179CHOL    R513965  10.167   1.739   6.562 -0.2241 -0.0031  0.0786
 1179CHOL    R613966  10.375   1.862   6.161  0.0264 -0.0335  0.1968
 1179CHOL    C113967  10.306   1.999   5.838  0.2219 -0.0907  0.1297
 1179CHOL    C213968  10.640   2.160   5.597 -0.0683  0.0687  0.0463
 1180CHOL   ROH13969   7.700   1.933   6.839  0.0791 -0.0943  0.2194
 1180CHOL    R113970   7.597   1.570   6.630  0.1902 -0.0647  0.1117
 1180CHOL    R213971   7.568   1.898   6.517  0.0918 -0.0397  0.2081
 1180CHOL    R313972   7.497   1.429   6.238  0.2355  0.0203  0.0693
 1180CHOL    R413973   7.551   1.793   6.226  0.1256  0.0406  0.1768
 1180CHOL    R513974   7.809   1.827   6.490  0.1137  0.0409  0.1884
 1180CHOL    R613975   7.685   1.586   6.109  0.1891  0.1153  0.1165
 1180CHOL    C113976   7.427   1.559   5.863  0.1987  0.1095  0.1070
 1180CHOL    C213977   7.456   1.355   5.491  0.0942  0.2199  0.2177
 1181CHOL   ROH13978  12.660  10.056   4.377  0.1289 -0.0549 -0.1076
 1181CHOL    R113979  12.648  10.059   4.808  0.1203  0.0234 -0.1083
 1181CHOL    R213980  12.422  10.202   4.585  0.1045 -0.0493 -0.1394
 1181CHOL    R313981  12.384  10.149   5.132  0.1016  0.0467 -0.1300
 1181CHOL    R413982  12.212  10.216   4.813  0.0983 -0.0363 -0.1458
 1181CHOL    R513983  12.370   9.956   4.601  0.1385 -0.0537 -0.0947
 1181CHOL    R613984  12.161  10.036   5.012  0.1196 -0.0066 -0.1133
 1181CHOL    C113985  12.016  10.296   5.209  0.0795  0.0100 -0.1644
 1181CHOL    C213986  11.955  10.492   5.619 -0.0755 -0.0779 -0.1659
 1182CHOL   ROH13987  16.627  16.044   5.822  0.1733  0.0390  0.1596
 1182CHOL    R113988  16.653  16.062   5.392  0.0811 -0.2132  0.1421
 1182CHOL    R213989  16.882  16.179   5.626  0.0138  0.1571  0.0299
 1182CHOL    R313990  16.934  16.141   5.079 -0.0465 -0.1469  0.0430
 1182CHOL    R413991  17.100  16.183   5.405 -0.0272  0.2211 -0.0095
 1182CHOL    R513992  16.915  15.929   5.602  0.2458  0.1695  0.1858
 1182CHOL    R613993  17.142  16.007   5.201  0.1044  0.1282  0.0967
 1182CHOL    C113994  17.314  16.262   5.019 -0.1678  0.1762 -0.0974
 1182CHOL    C213995  17.450  16.256   4.600  0.2135 -0.0108  0.0931
 1183CHOL   ROH13996  27.184   0.221   4.134 -0.1102  0.0259  0.0780
 1183CHOL    R113997  27.319   0.577   4.337 -0.0404  0.0030  0.0724
 1183CHOL    R213998  27.104   0.330   4.456 -0.0950  0.0507  0.0734
 1183CHOL    R313999  27.328   0.753   4.727 -0.0128  0.0107  0.0682
 1183CHOL    R414000  27.158   0.428   4.745 -0.0814  0.0467  0.0722
 1183CHOL    R514001  27.341   0.246   4.480 -0.1130  0.0017  0.0812
 1183CHOL    R614002  27.390   0.517   4.857 -0.0653  0.0009  0.0756
 1183CHOL    C114003  27.201   0.693   5.105 -0.0345  0.0466  0.0667
 1183CHOL    C214004  27.248   1.043   5.414  0.0011  0.3344 -0.0381
 1184CHOL   ROH14005   5.862   8.525   3.728 -0.0838  0.0168  0.0483
 1184CHOL    R114006   6.051   8.284   4.032 -0.1193 -0.0033  0.0545
 1184CHOL    R214007   5.826   8.546   4.075 -0.0435  0.0628  0.0497
 1184CHOL    R314008   6.025   8.195   4.450 -0.1020  0.0476  0.0664
 1184CHOL    R414009   5.769   8.445   4.362 -0.0426  0.1084  0.0660
 1184CHOL    R514010   5.695   8.339   4.015 -0.1061  0.0923  0.0844
 1184CHOL    R614011   5.748   8.189   4.454 -0.1034  0.1236  0.0948
 1184CHOL    C114012   5.826   8.302   4.784 -0.0395  0.1368  0.0752
 1184CHOL    C214013   5.896   8.149   5.182 -0.2737 -0.1704 -0.0977
 1185CHOL   ROH14014  20.726  19.065   6.815 -0.0160  0.0351  0.2323
 1185CHOL    R114015  20.435  19.270   6.571  0.0064 -0.0645  0.1209
 1185CHOL    R214016  20.774  19.342   6.609 -0.0115 -0.0081  0.1754
 1185CHOL    R314017  20.411  19.558   6.256  0.0324 -0.1439  0.0460
 1185CHOL    R414018  20.764  19.507   6.347  0.0206 -0.0726  0.1332
 1185CHOL    R514019  20.752  19.150   6.446  0.0500 -0.0506  0.2168
 1185CHOL    R614020  20.627  19.457   6.116  0.0765 -0.1477  0.1160
 1185CHOL    C114021  20.640  19.805   6.034  0.0445 -0.1653  0.0348
 1185CHOL    C214022  20.446  20.189   5.940 -0.3515  0.2486  0.4373
 1186CHOL   ROH14023  18.969  25.513   7.294 -0.1006 -0.0715  0.0378
 1186CHOL    R114024  18.784  25.205   7.056 -0.0727 -0.0293 -0.0387
 1186CHOL    R214025  18.856  25.533   6.965 -0.0992 -0.0011  0.0415
 1186CHOL    R314026  18.677  25.118   6.651 -0.0618  0.0601 -0.0610
 1186CHOL    R414027  18.830  25.452   6.667 -0.0897  0.0690  0.0214
 1186CHOL    R514028  19.068  25.399   6.946 -0.0878  0.0212  0.0107
 1186CHOL    R614029  18.909  25.222   6.543 -0.0693  0.1057 -0.0337
 1186CHOL    C114030  18.672  25.282   6.283 -0.0719  0.1490 -0.0215
 1186CHOL    C214031  18.646  24.980   5.961 -0.0098  0.1181  0.3432
 1187CHOL   ROH14032  12.076  22.599   7.018 -0.0451 -0.0010 -0.0192
 1187CHOL    R114033  12.367  22.442   6.740  0.0607  0.1824 -0.0139
 1187CHOL    R214034  12.093  22.646   6.673 -0.0601  0.0221 -0.0169
 1187CHOL    R314035  12.501  22.492   6.337  0.0468  0.2781 -0.0070
 1187CHOL    R414036  12.222  22.723   6.402 -0.0952  0.1095 -0.0091
 1187CHOL    R514037  12.279  22.792   6.761 -0.1499  0.1307 -0.0043
 1187CHOL    R614038  12.485  22.768   6.342 -0.1189  0.2690  0.0026
 1187CHOL    C114039  12.418  22.694   5.998 -0.0615  0.2413 -0.0027
 1187CHOL    C214040  12.565  22.640   5.570  0.0320 -0.2410 -0.0781
 1188CHOL   ROH14041  10.597  14.436   7.244  0.0127 -0.1205 -0.1030
 1188CHOL    R114042  10.638  14.323   6.830 -0.2203 -0.1365 -0.1230
 1188CHOL    R214043  10.495  14.611   6.961  0.0368 -0.0352 -0.0591
 1188CHOL    R314044  10.606  14.487   6.437 -0.2444 -0.0985 -0.1053
 1188CHOL    R414045  10.524  14.747   6.684  0.0346 -0.0460 -0.0647
 1188CHOL    R514046  10.745  14.641   6.961  0.0604 -0.2175 -0.1490
 1188CHOL    R614047  10.727  14.727   6.502 -0.0448 -0.1875 -0.1395
 1188CHOL    C114048  10.502  14.824   6.242 -0.0705 -0.0140 -0.0540
 1188CHOL    C214049  10.727  14.914   5.869  0.0000  0.2084 -0.1048
 1189CHOL   ROH14050  17.466   6.870   6.705 -0.1940 -0.1295 -0.0878
 1189CHOL    R114051  17.352   7.211   6.467 -0.2402 -0.1671 -0.1198
 1189CHOL    R214052  17.530   6.929   6.367 -0.0436 -0.0694 -0.0493
 1189CHOL    R314053  17.329   7.339   6.059 -0.0874 -0.1458 -0.1225
 1189CHOL    R414054  17.464   6.997   6.072  0.0797 -0.0792 -0.0798
 1189CHOL    R514055  17.285   6.870   6.370 -0.0164 -0.1942 -0.1851
 1189CHOL    R614056  17.234   7.097   5.965  0.0852 -0.1871 -0.1943
 1189CHOL    C114057  17.418   7.219   5.685  0.1736 -0.0704 -0.0860
 1189CHOL    C214058  17.274   7.569   5.452  0.0332 -0.1149  0.0542
 1190CHOL   ROH14059  24.370   7.378   4.223 -0.1030 -0.2830 -0.0180
 1190CHOL    R114060  24.273   7.163   4.584 -0.0452 -0.1643  0.0688
 1190CHOL    R214061  24.440   7.467   4.553 -0.0837 -0.1554 -0.0560
 1190CHOL    R314062  24.258   7.217   5.008 -0.0134 -0.0127  0.0514
 1190CHOL    R414063  24.379   7.527   4.850 -0.0639 -0.0549 -0.0718
 1190CHOL    R514064  24.192   7.511   4.531 -0.0910 -0.1925 -0.0500
 1190CHOL    R614065  24.153   7.473   4.995 -0.0445 -0.0294 -0.0319
 1190CHOL    C114066  24.345   7.485   5.297 -0.0186  0.1023 -0.0529
 1190CHOL    C214067  24.125   7.498   5.658  0.2594 -0.2978  0.0726
 1191CHOL   ROH14068   8.398  24.429   4.050  0.2212  0.0410 -0.0488
 1191CHOL    R114069   8.473  24.660   4.407 -0.1107 -0.0024  0.0521
 1191CHOL    R214070   8.404  24.320   4.381  0.1394 -0.0454 -0.0754
 1191CHOL    R314071   8.560  24.610   4.823 -0.2738 -0.0546  0.0808
 1191CHOL    R414072   8.520  24.279   4.666  0.0324 -0.0416 -0.0307
 1191CHOL    R514073   8.648  24.354   4.327  0.1427  0.1410  0.0500
 1191CHOL    R614074   8.735  24.399   4.784 -0.1067  0.0779  0.1052
 1191CHOL    C114075   8.599  24.325   5.106 -0.2103 -0.1063  0.0207
 1191CHOL    C214076   8.697  24.447   5.516  0.0584 -0.1897 -0.0160
 1192CHOL   ROH14077  27.111   7.838   6.832  0.2946 -0.0249 -0.1570
 1192CHOL    R114078  27.111   7.872   6.402 -0.0526 -0.0043 -0.1577
 1192CHOL    R214079  27.038   8.118   6.638  0.1938  0.0002 -0.0837
 1192CHOL    R314080  27.099   8.167   6.093 -0.2444  0.0129 -0.1354
 1192CHOL    R414081  27.085   8.334   6.421  0.0617  0.0005 -0.1127
 1192CHOL    R514082  27.289   8.098   6.620  0.1770 -0.0532 -0.2917
 1192CHOL    R614083  27.271   8.341   6.221 -0.0996 -0.0303 -0.2674
 1192CHOL    C114084  27.062   8.564   6.036 -0.2062  0.0239 -0.0851
 1192CHOL    C214085  27.039   8.697   5.635  0.3209 -0.2347  0.1438
 1193CHOL   ROH14086  19.207   1.856   4.302 -0.2735  0.3724 -0.0489
 1193CHOL    R114087  19.265   1.767   4.720  0.0444  0.0827 -0.1506
 1193CHOL    R214088  19.493   1.903   4.495 -0.1632  0.3497 -0.2050
 1193CHOL    R314089  19.538   1.842   5.041  0.2270 -0.0414 -0.2747
 1193CHOL    R414090  19.662   2.004   4.735 -0.0469  0.2427 -0.2406
 1193CHOL    R514091  19.340   2.088   4.572 -0.1935  0.2278  0.0367
 1193CHOL    R614092  19.579   2.107   4.974  0.0668  0.0288 -0.1057
 1193CHOL    C114093  19.892   2.016   5.120  0.2061  0.0515 -0.3826
 1193CHOL    C214094  20.242   2.029   5.396  0.3800 -0.2130 -0.1365
 1194CHOL   ROH14095  15.737   7.797   4.131  0.1275 -0.3637 -0.0631
 1194CHOL    R114096  15.467   7.955   4.428  0.2049 -0.0830 -0.1393
 1194CHOL    R214097  15.696   7.695   4.462 -0.0298 -0.2829 -0.0569
 1194CHOL    R314098  15.393   7.943   4.849  0.1083  0.0402 -0.1523
 1194CHOL    R414099  15.680   7.727   4.770 -0.0644 -0.2265 -0.0644
 1194CHOL    R514100  15.822   7.913   4.483  0.1595 -0.3893 -0.0622
 1194CHOL    R614101  15.660   7.954   4.920  0.1061 -0.1865 -0.1002
 1194CHOL    C114102  15.519   7.765   5.188 -0.1172 -0.0266 -0.1018
 1194CHOL    C214103  15.277   7.802   5.563 -0.1388 -0.0498  0.2255
 1195CHOL   ROH14104   3.254   8.663   7.362  0.0344  0.0387  0.1004
 1195CHOL    R114105   3.317   8.758   6.946  0.0359  0.0329  0.0992
 1195CHOL    R214106   3.059   8.572   7.087  0.0456  0.0193  0.0989
 1195CHOL    R314107   3.115   8.749   6.569  0.0436  0.0106  0.0957
 1195CHOL    R414108   2.892   8.615   6.830  0.0476  0.0021  0.0947
 1195CHOL    R514109   3.005   8.817   7.119  0.0288  0.0165  0.0920
 1195CHOL    R614110   2.873   8.837   6.671  0.0359 -0.0029  0.0890
 1195CHOL    C114111   2.770   8.630   6.398  0.0546 -0.0162  0.0920
 1195CHOL    C214112   2.846   8.518   6.001 -0.1455  0.2051  0.0836
 1196CHOL   ROH14113   0.749  18.630   4.769 -0.1105  0.1558  0.0850
 1196CHOL    R114114   0.956  18.478   5.116  0.0155  0.0254 -0.0459
 1196CHOL    R214115   1.021  18.769   4.936 -0.1500  0.1754  0.1330
 1196CHOL    R314116   1.239  18.599   5.413  0.0047 -0.0349 -0.0109
 1196CHOL    R414117   1.182  18.877   5.178 -0.1634  0.0936  0.1789
 1196CHOL    R514118   0.827  18.815   5.091 -0.1481 -0.0172  0.1946
 1196CHOL    R614119   1.131  18.852   5.445 -0.1103 -0.1056  0.1718
 1196CHOL    C114120   1.477  18.908   5.516 -0.1250  0.0117  0.1530
 1196CHOL    C214121   1.827  18.940   5.775  0.1856  0.4347 -0.0490
 1197CHOL   ROH14122  16.606   3.050   6.228 -0.0559 -0.1124  0.0980
 1197CHOL    R114123  16.829   2.844   5.921 -0.1666 -0.2228  0.0908
 1197CHOL    R214124  16.538   3.032   5.886 -0.0158  0.0134  0.0829
 1197CHOL    R314125  16.862   2.818   5.496 -0.1187 -0.1578  0.0903
 1197CHOL    R414126  16.595   3.057   5.583  0.0525  0.0334  0.0972
 1197CHOL    R514127  16.733   3.192   5.899  0.1083 -0.1406  0.1483
 1197CHOL    R614128  16.834   3.090   5.454  0.1008 -0.1253  0.1431
 1197CHOL    C114129  16.691   2.953   5.156  0.0398  0.0489  0.0906
 1197CHOL    C214130  16.701   2.776   4.741  0.0275  0.0287  0.3238
 1198CHOL   ROH14131   7.279  10.650   6.987 -0.2349 -0.0515 -0.0264
 1198CHOL    R114132   7.229  10.386   6.649 -0.0999 -0.0176 -0.0735
 1198CHOL    R214133   7.269  10.732   6.648 -0.2432 -0.0001 -0.0139
 1198CHOL    R314134   7.265  10.382   6.223 -0.0657  0.0671 -0.0717
 1198CHOL    R414135   7.349  10.717   6.349 -0.2144  0.0820 -0.0104
 1198CHOL    R514136   7.497  10.627   6.676 -0.2013  0.0896 -0.0141
 1198CHOL    R614137   7.499  10.530   6.219 -0.1265  0.1652 -0.0300
 1198CHOL    C114138   7.345  10.623   5.910 -0.1417  0.1518 -0.0264
 1198CHOL    C214139   7.363  10.540   5.481  0.0659  0.0252 -0.0916
 1199CHOL   ROH14140   3.580   1.858   7.361 -0.0486  0.1476  0.1564
 1199CHOL    R114141   3.342   1.904   7.003  0.1097  0.0487  0.0375
 1199CHOL    R214142   3.656   2.038   7.072  0.0575  0.1095  0.1603
 1199CHOL    R314143   3.374   2.039   6.599  0.2762 -0.0164  0.0279
 1199CHOL    R414144   3.698   2.085   6.768  0.1911  0.0634  0.1709
 1199CHOL    R514145   3.688   1.798   7.001  0.1280  0.1022  0.2162
 1199CHOL    R614146   3.624   1.928   6.557  0.3137  0.0153  0.1631
 1199CHOL    C114147   3.632   2.215   6.343  0.3680 -0.0205  0.1169
 1199CHOL    C214148   3.465   2.224   5.929 -0.1110  0.0185 -0.1533
 1200CHOL   ROH14149   4.820  24.752   4.404 -0.2085  0.0141  0.0566
 1200CHOL    R114150   4.736  25.130   4.594 -0.2419  0.0413 -0.0120
 1200CHOL    R214151   4.558  24.832   4.620 -0.1377 -0.0082  0.1513
 1200CHOL    R314152   4.495  25.299   4.905 -0.1568  0.0522  0.0487
 1200CHOL    R414153   4.425  24.938   4.879 -0.0558  0.0220  0.1815
 1200CHOL    R514154   4.758  24.817   4.773 -0.0639  0.0977  0.0669
 1200CHOL    R614155   4.532  25.088   5.080 -0.0122  0.1123  0.0919
 1200CHOL    C114156   4.206  25.203   5.168 -0.0096  0.0342  0.2054
 1200CHOL    C214157   4.109  25.407   5.535  0.0051  0.2458  0.0109
 1201CHOL   ROH14158   3.180   7.185   3.722  0.3047  0.2797 -0.1514
 1201CHOL    R114159   3.362   7.440   4.019  0.0713  0.1555  0.1018
 1201CHOL    R214160   3.160   7.161   4.069  0.1564  0.0409 -0.1747
 1201CHOL    R314161   3.444   7.454   4.439 -0.1243 -0.0905  0.1507
 1201CHOL    R414162   3.265   7.142   4.360  0.0320 -0.1109 -0.1384
 1201CHOL    R514163   3.393   7.080   4.019  0.2118  0.1664 -0.1241
 1201CHOL    R614164   3.516   7.187   4.457 -0.0285 -0.0754  0.0052
 1201CHOL    C114165   3.379   7.250   4.781 -0.2008 -0.3444 -0.0119
 1201CHOL    C214166   3.418   7.454   5.184  0.1827  0.2471 -0.2868
 1202CHOL   ROH14167  20.080  25.227   4.069  0.0860  0.0803  0.0759
 1202CHOL    R114168  19.785  25.246   4.383 -0.0126  0.1204 -0.0185
 1202CHOL    R214169  20.125  25.174   4.411 -0.0383  0.0371  0.0858
 1202CHOL    R314170  19.755  25.260   4.809 -0.1488  0.0868 -0.0267
 1202CHOL    R414171  20.110  25.238   4.713 -0.1219  0.0115  0.0873
 1202CHOL    R514172  20.099  25.424   4.393  0.0271  0.0449  0.1010
 1202CHOL    R614173  19.968  25.433   4.842 -0.1176  0.0332  0.0595
 1202CHOL    C114174  19.980  25.242   5.143 -0.2617  0.0013  0.0456
 1202CHOL    C214175  19.924  25.138   5.554 -0.1162  0.3812 -0.2923
 1203CHOL   ROH14176   1.161  14.368   7.291  0.1048  0.0806  0.1368
 1203CHOL    R114177   1.399  14.086   7.068  0.0690  0.0343  0.1570
 1203CHOL    R214178   1.254  14.381   6.955  0.1130  0.0486  0.1378
 1203CHOL    R314179   1.607  14.048   6.697  0.0707 -0.0162  0.1631
 1203CHOL    R414180   1.447  14.379   6.713  0.1173  0.0076  0.1415
 1203CHOL    R514181   1.466  14.441   7.077  0.1192  0.0252  0.1385
 1203CHOL    R614182   1.709  14.305   6.702  0.1072 -0.0303  0.1506
 1203CHOL    C114183   1.676  14.244   6.351  0.1050 -0.0452  0.1534
 1203CHOL    C214184   1.837  14.283   5.955  0.0080 -0.2570  0.1017
 1204CHOL   ROH14185  18.090  13.172   6.624  0.2401  0.2258 -0.0046
 1204CHOL    R114186  18.130  13.070   6.207  0.1246  0.0404  0.0282
 1204CHOL    R214187  17.897  13.283   6.355  0.2585  0.2222 -0.0192
 1204CHOL    R314188  17.995  13.194   5.820  0.1332 -0.0395 -0.0005
 1204CHOL    R414189  17.842  13.409   6.077  0.2842  0.1432 -0.0606
 1204CHOL    R514190  18.114  13.410   6.329  0.3225  0.0981 -0.1017
 1204CHOL    R614191  18.016  13.465   5.875  0.2847 -0.0280 -0.1092
 1204CHOL    C114192  17.746  13.456   5.641  0.2443  0.0231 -0.0651
 1204CHOL    C214193  17.675  13.466   5.208 -0.0658  0.1454 -0.2130
 1205CHOL   ROH14194   6.479   3.512   6.969 -0.0994 -0.0040  0.0412
 1205CHOL    R114195   6.715   3.360   6.642 -0.0910 -0.0007  0.0457
 1205CHOL    R214196   6.369   3.362   6.675 -0.0956  0.0836 -0.0054
 1205CHOL    R314197   6.676   3.226   6.238 -0.0666  0.0904  0.0129
 1205CHOL    R414198   6.344   3.319   6.369 -0.0619  0.1512 -0.0177
 1205CHOL    R514199   6.442   3.591   6.600 -0.0242  0.0799  0.0511
 1205CHOL    R614200   6.495   3.423   6.167 -0.0045  0.1523  0.0253
 1205CHOL    C114201   6.398   3.152   5.955 -0.0448  0.2196 -0.0433
 1205CHOL    C214202   6.445   3.056   5.534 -0.1169  0.1442  0.1079
 1206CHOL   ROH14203   7.917  14.484   3.578 -0.0198  0.0832 -0.0900
 1206CHOL    R114204   7.698  14.628   3.921 -0.0912 -0.0870 -0.0632
 1206CHOL    R214205   7.960  14.399   3.913  0.0048  0.0232 -0.1082
 1206CHOL    R314206   7.717  14.634   4.348 -0.1073 -0.1780 -0.0611
 1206CHOL    R414207   8.006  14.448   4.216 -0.0252 -0.0276 -0.0954
 1206CHOL    R514208   8.059  14.631   3.899 -0.0910  0.0682 -0.0516
 1206CHOL    R614209   7.989  14.680   4.358 -0.1266 -0.0668 -0.0420
 1206CHOL    C114210   7.933  14.492   4.657 -0.0581 -0.1597 -0.0871
 1206CHOL    C214211   7.948  14.638   5.068 -0.2078  0.0616 -0.5242
 1207CHOL   ROH14212   3.198  20.877   7.277 -0.1540 -0.1716 -0.0187
 1207CHOL    R114213   2.971  21.075   6.968 -0.1832 -0.0836  0.0589
 1207CHOL    R214214   3.197  20.813   6.934 -0.1564 -0.0479 -0.0423
 1207CHOL    R314215   2.859  21.031   6.558 -0.1894  0.0530  0.0453
 1207CHOL    R414216   3.074  20.749   6.656 -0.1570  0.0396 -0.0623
 1207CHOL    R514217   2.977  20.717   7.012 -0.1442 -0.0993 -0.0707
 1207CHOL    R614218   2.813  20.758   6.576 -0.1602  0.0413 -0.0519
 1207CHOL    C114219   2.920  20.795   6.237 -0.1730  0.1752 -0.0422
 1207CHOL    C214220   2.866  20.923   5.829  0.1164  0.2181 -0.0934
 1208CHOL   ROH14221  17.587   0.600   7.303  0.0494  0.1759  0.0000
 1208CHOL    R114222  17.401   0.695   6.926 -0.0875  0.0508  0.0355
 1208CHOL    R214223  17.700   0.525   6.982 -0.0073  0.1731 -0.0192
 1208CHOL    R314224  17.425   0.597   6.510 -0.1607  0.0006  0.0429
 1208CHOL    R414225  17.684   0.411   6.694 -0.0402  0.1260  0.0011
 1208CHOL    R514226  17.510   0.363   7.017  0.0639  0.1051  0.0547
 1208CHOL    R614227  17.467   0.326   6.553 -0.0460  0.0222  0.0710
 1208CHOL    C114228  17.644   0.383   6.247 -0.1485  0.0466  0.0156
 1208CHOL    C214229  17.631   0.321   5.820  0.0034  0.0580 -0.2418
 1209CHOL   ROH14230  19.507  18.294   3.938  0.0013 -0.0552  0.1540
 1209CHOL    R114231  19.487  17.916   4.145  0.0024 -0.0525  0.1589
 1209CHOL    R214232  19.615  18.218   4.261 -0.0446 -0.0382  0.1735
 1209CHOL    R314233  19.530  17.749   4.536 -0.0463 -0.0402  0.1696
 1209CHOL    R414234  19.593  18.111   4.551 -0.0825 -0.0340  0.1722
 1209CHOL    R514235  19.364  18.226   4.283 -0.0490 -0.0609  0.1321
 1209CHOL    R614236  19.399  17.956   4.664 -0.0866 -0.0496  0.1436
 1209CHOL    C114237  19.631  17.849   4.913 -0.1176 -0.0227  0.1841
 1209CHOL    C214238  19.611  17.525   5.198  0.0856 -0.1057  0.0005
 1210CHOL   ROH14239   1.459  12.219   6.985  0.1589  0.0208  0.0189
 1210CHOL    R114240   1.272  12.290   6.603  0.1572  0.1139  0.0369
 1210CHOL    R214241   1.565  12.114   6.670  0.0894 -0.0115  0.0061
 1210CHOL    R314242   1.288  12.158   6.196  0.0689  0.1231  0.0304
 1210CHOL    R414243   1.542  11.978   6.392  0.0098  0.0086  0.0026
 1210CHOL    R514244   1.369  11.963   6.720  0.0296  0.0682  0.0160
 1210CHOL    R614245   1.319  11.891   6.260 -0.0379  0.1067  0.0172
 1210CHOL    C114246   1.495  11.916   5.950 -0.0524  0.0452  0.0040
 1210CHOL    C214247   1.549  11.895   5.501  0.1967  0.1690  0.0654
 1211CHOL   ROH14248  19.149  18.920   6.915  0.0388  0.1971 -0.2127
 1211CHOL    R114249  19.015  18.942   6.506 -0.2100  0.1115 -0.1379
 1211CHOL    R214250  19.085  18.658   6.694  0.0198  0.1541 -0.1565
 1211CHOL    R314251  18.857  18.695   6.194 -0.2884  0.0221 -0.0284
 1211CHOL    R414252  18.922  18.489   6.492 -0.0273  0.0703 -0.0493
 1211CHOL    R514253  18.855  18.738   6.757  0.0216  0.0611 -0.0282
 1211CHOL    R614254  18.690  18.551   6.361 -0.1310 -0.0367  0.0803
 1211CHOL    C114255  18.769  18.311   6.108 -0.1768 -0.0218  0.0517
 1211CHOL    C214256  18.488  18.131   5.855  0.0279  0.0676  0.2522
 1212CHOL   ROH14257   4.422  21.048   6.882  0.3011  0.4849 -0.0717
 1212CHOL    R114258   4.225  20.924   6.519  0.2285 -0.0509  0.1415
 1212CHOL    R214259   4.550  21.041   6.558  0.1192  0.3699 -0.1428
 1212CHOL    R314260   4.311  20.824   6.112  0.1062 -0.2861  0.1716
 1212CHOL    R414261   4.623  20.918   6.283  0.1022  0.2274 -0.0844
 1212CHOL    R514262   4.546  20.798   6.624  0.4452  0.4152  0.0639
 1212CHOL    R614263   4.541  20.683   6.171  0.3119  0.0334  0.1586
 1212CHOL    C114264   4.614  20.813   5.846 -0.0324 -0.1456  0.0049
 1212CHOL    C214265   4.496  20.845   5.417 -0.2726  0.0265 -0.3409
 1213CHOL   ROH14266  15.981  16.783   5.948  0.0787 -0.0292  0.0300
 1213CHOL    R114267  16.012  16.401   5.750  0.1953  0.0630 -0.1315
 1213CHOL    R214268  15.743  16.621   5.752  0.0408 -0.1226  0.1520
 1213CHOL    R314269  15.815  16.163   5.454  0.1357  0.0338 -0.0684
 1213CHOL    R414270  15.629  16.478   5.501 -0.0501 -0.1096  0.1852
 1213CHOL    R514271  15.910  16.705   5.583 -0.1434  0.0557  0.0531
 1213CHOL    R614272  15.762  16.376   5.285 -0.1408  0.0608  0.0464
 1213CHOL    C114273  15.487  16.158   5.220 -0.0408 -0.1070  0.1774
 1213CHOL    C214274  15.320  15.777   5.132  0.0541  0.2817 -0.0136
 1214CHOL   ROH14275   9.624  17.018   3.708 -0.0577  0.2312 -0.0932
 1214CHOL    R114276   9.461  16.853   4.072 -0.0073  0.1242 -0.1190
 1214CHOL    R214277   9.641  17.148   4.032 -0.0433  0.1541 -0.0629
 1214CHOL    R314278   9.379  16.960   4.478  0.0168  0.0159 -0.0852
 1214CHOL    R414279   9.534  17.246   4.306 -0.0299  0.0755 -0.0293
 1214CHOL    R514280   9.402  17.192   3.964 -0.0543  0.1445 -0.0309
 1214CHOL    R614281   9.287  17.213   4.416 -0.0165  0.0211 -0.0150
 1214CHOL    C114282   9.427  17.261   4.742  0.0069 -0.0431 -0.0157
 1214CHOL    C214283   9.330  17.133   5.168  0.2386 -0.1765  0.0581
 1215CHOL   ROH14284   5.989  13.193   6.795  0.1369  0.0146  0.1092
 1215CHOL    R114285   6.147  13.482   6.517  0.0438  0.0401  0.0825
 1215CHOL    R214286   5.999  13.175   6.447  0.0481  0.0328  0.1056
 1215CHOL    R314287   6.147  13.575   6.100 -0.0710  0.0608  0.0869
 1215CHOL    R414288   5.951  13.269   6.156 -0.0342  0.0438  0.1225
 1215CHOL    R514289   5.815  13.342   6.492  0.0475  0.0170  0.1614
 1215CHOL    R614290   5.879  13.515   6.063 -0.0763  0.0432  0.1532
 1215CHOL    C114291   6.019  13.435   5.744 -0.1528  0.0693  0.1128
 1215CHOL    C214292   6.251  13.544   5.408 -0.0311  0.2774 -0.0631
 1216CHOL   ROH14293   0.209  18.524   4.615  0.2311 -0.0901  0.0187
 1216CHOL    R114294   0.371  18.903   4.741  0.0654 -0.0232  0.0327
 1216CHOL    R214295   0.157  18.692   4.916  0.0825 -0.0783 -0.0127
 1216CHOL    R314296   0.417  19.145   5.090 -0.1226  0.0259  0.0240
 1216CHOL    R414297   0.236  18.837   5.178 -0.0463 -0.0267 -0.0022
 1216CHOL    R514298   0.392  18.602   4.939  0.1062  0.0024  0.0675
 1216CHOL    R614299   0.479  18.933   5.257 -0.1021  0.0626  0.0632
 1216CHOL    C114300   0.316  19.160   5.480 -0.2469  0.0296 -0.0078
 1216CHOL    C214301   0.217  19.480   5.749 -0.1810 -0.0825  0.1243
 1217CHOL   ROH14302   6.448   3.969   7.120 -0.2080  0.1187 -0.1023
 1217CHOL    R114303   6.182   3.809   6.820 -0.0928  0.0278 -0.1568
 1217CHOL    R214304   6.409   4.072   6.789 -0.1753  0.1050 -0.1104
 1217CHOL    R314305   6.111   3.822   6.398 -0.0111  0.0032 -0.1714
 1217CHOL    R414306   6.396   4.041   6.481 -0.1019  0.1002 -0.1132
 1217CHOL    R514307   6.537   3.855   6.768 -0.0973  0.1483 -0.0844
 1217CHOL    R614308   6.379   3.814   6.330  0.0061  0.0942 -0.1167
 1217CHOL    C114309   6.239   4.003   6.061 -0.0037  0.0463 -0.1455
 1217CHOL    C214310   6.061   3.843   5.693 -0.1439  0.4880  0.0103
 1218CHOL   ROH14311  22.464  12.199   4.398  0.0006 -0.0206 -0.0168
 1218CHOL    R114312  22.399  12.112   4.816 -0.0319 -0.1106 -0.0404
 1218CHOL    R214313  22.502  12.412   4.672  0.1373 -0.1260  0.0472
 1218CHOL    R314314  22.358  12.309   5.193  0.0999 -0.2018  0.0220
 1218CHOL    R414315  22.420  12.560   4.931  0.2354 -0.1565  0.0963
 1218CHOL    R514316  22.252  12.395   4.646  0.1255  0.0285  0.0522
 1218CHOL    R614317  22.205  12.517   5.094  0.2167 -0.0809  0.0921
 1218CHOL    C114318  22.380  12.674   5.364  0.3207 -0.2653  0.1332
 1218CHOL    C214319  22.392  12.598   5.781  0.3313 -0.0932  0.2021
 1219CHOL   ROH14320   5.473   0.275   4.244 -0.1083 -0.1180  0.0314
 1219CHOL    R114321   5.316   0.617   4.455 -0.0565 -0.0441 -0.0491
 1219CHOL    R214322   5.448   0.324   4.588 -0.1108 -0.0373  0.0200
 1219CHOL    R314323   5.303   0.787   4.847 -0.0396  0.0452 -0.0871
 1219CHOL    R414324   5.487   0.469   4.859 -0.0944  0.0160 -0.0109
 1219CHOL    R514325   5.640   0.473   4.522 -0.0832 -0.0849 -0.0072
 1219CHOL    R614326   5.566   0.726   4.908 -0.0520  0.0136 -0.0655
 1219CHOL    C114327   5.409   0.712   5.229 -0.0643  0.1115 -0.0670
 1219CHOL    C214328   5.222   0.821   5.612  0.2061  0.1540  0.1270
 1220CHOL   ROH14329   4.697  27.053   7.347  0.0223 -0.0585 -0.0151
 1220CHOL    R114330   4.820  27.165   6.949 -0.0557  0.1615  0.0218
 1220CHOL    R214331   4.610  26.905   7.043 -0.0098  0.0879 -0.0781
 1220CHOL    R314332   4.723  27.093   6.539 -0.1140  0.3623 -0.0008
 1220CHOL    R414333   4.502  26.892   6.753 -0.0555  0.2252 -0.0677
 1220CHOL    R514334   4.475  27.118   7.046 -0.0345  0.0717  0.0541
 1220CHOL    R614335   4.449  27.096   6.579 -0.1078  0.3098  0.0455
 1220CHOL    C114336   4.483  26.869   6.305 -0.1258  0.4547 -0.0780
 1220CHOL    C214337   4.535  26.724   5.885  0.1710 -0.0206 -0.0328
 1221CHOL   ROH14338  13.016  23.420   3.866  0.1089 -0.0734 -0.0088
 1221CHOL    R114339  13.276  23.526   4.193  0.0583 -0.1351  0.0517
 1221CHOL    R214340  12.969  23.666   4.109  0.1322 -0.0299 -0.0480
 1221CHOL    R314341  13.278  23.751   4.557  0.0411 -0.0970  0.0282
 1221CHOL    R414342  12.948  23.783   4.395  0.0965  0.0082 -0.0661
 1221CHOL    R514343  12.926  23.450   4.234  0.0183 -0.0010 -0.0366
 1221CHOL    R614344  13.024  23.672   4.633 -0.0099  0.0052 -0.0331
 1221CHOL    C114345  13.048  23.999   4.777  0.0715  0.0119 -0.0617
 1221CHOL    C214346  13.156  24.013   5.201 -0.3276  0.0205  0.2485
 1222CHOL   ROH14347  14.089  24.182   7.442 -0.0053 -0.3031 -0.0922
 1222CHOL    R114348  14.023  24.458   7.117  0.0624 -0.1779 -0.0005
 1222CHOL    R214349  14.018  24.110   7.108 -0.0531 -0.1740 -0.1101
 1222CHOL    R314350  13.874  24.470   6.716  0.0371 -0.0022  0.0132
 1222CHOL    R414351  13.860  24.124   6.841 -0.0680 -0.0377 -0.0952
 1222CHOL    R514352  13.796  24.189   7.200 -0.0207 -0.1298 -0.0696
 1222CHOL    R614353  13.664  24.297   6.765 -0.0166  0.0518 -0.0266
 1222CHOL    C114354  13.739  24.230   6.422 -0.0634  0.1350 -0.0535
 1222CHOL    C214355  13.453  24.346   6.132 -0.3748  0.0716  0.2066
 1223CHOL   ROH14356   7.883  19.293   4.024 -0.1834 -0.1092 -0.0338
 1223CHOL    R114357   8.093  19.241   4.397  0.0032 -0.0510 -0.1299
 1223CHOL    R214358   7.827  19.454   4.328 -0.0616 -0.0954 -0.0182
 1223CHOL    R314359   8.061  19.337   4.813  0.1881 -0.0256 -0.1206
 1223CHOL    R414360   7.772  19.477   4.633  0.0806 -0.0812  0.0068
 1223CHOL    R514361   7.734  19.222   4.367 -0.0094 -0.1061  0.0433
 1223CHOL    R614362   7.789  19.286   4.827  0.2015 -0.0647  0.0133
 1223CHOL    C114363   7.831  19.541   5.073  0.2824 -0.0405 -0.0251
 1223CHOL    C214364   7.939  19.530   5.474  0.1730  0.2459  0.1116
 1224CHOL   ROH14365   0.092   9.459   7.444  0.2984  0.1240 -0.0991
 1224CHOL    R114366   0.238   9.381   7.045 -0.0817  0.0139 -0.2219
 1224CHOL    R214367  -0.047   9.558   7.139  0.0608  0.1266  0.0075
 1224CHOL    R314368   0.181   9.506   6.641 -0.3991 -0.0263 -0.1915
 1224CHOL    R414369  -0.053   9.689   6.859 -0.1432  0.0872 -0.0079
 1224CHOL    R514370   0.153   9.711   7.166  0.1397  0.0620 -0.1915
 1224CHOL    R614371   0.155   9.775   6.703 -0.2502 -0.0076 -0.2062
 1224CHOL    C114372  -0.053   9.744   6.413 -0.5210  0.0206 -0.0199
 1224CHOL    C214373   0.028   9.867   5.989 -0.0582 -0.1694 -0.1792
 1225CHOL   ROH14374  10.044  17.264   5.311 -0.0951  0.1969 -0.0171
 1225CHOL    R114375  10.266  16.982   5.072 -0.1320  0.1430  0.0123
 1225CHOL    R214376  10.073  17.250   4.963 -0.0312  0.2060 -0.0122
 1225CHOL    R314377  10.408  16.924   4.673 -0.0709  0.1214  0.0370
 1225CHOL    R414378  10.218  17.239   4.690  0.0193  0.1769  0.0157
 1225CHOL    R514379  10.297  17.340   5.038 -0.0186  0.1358  0.0363
 1225CHOL    R614380  10.481  17.188   4.636  0.0151  0.1015  0.0647
 1225CHOL    C114381  10.392  17.087   4.304  0.0500  0.1449  0.0420
 1225CHOL    C214382  10.481  16.808   3.973 -0.1108 -0.4741 -0.1809
 1226CHOL   ROH14383  24.929  17.630   3.975 -0.0525  0.1628  0.1358
 1226CHOL    R114384  24.929  17.488   4.382 -0.1096  0.0856  0.1091
 1226CHOL    R214385  24.993  17.810   4.267 -0.0222  0.0917  0.1732
 1226CHOL    R314386  24.931  17.633   4.785 -0.0940  0.0094  0.1367
 1226CHOL    R414387  24.939  17.918   4.552 -0.0096  0.0516  0.1909
 1226CHOL    R514388  24.743  17.777   4.272 -0.0309  0.1538  0.1537
 1226CHOL    R614389  24.753  17.839   4.735 -0.0394  0.0640  0.1661
 1226CHOL    C114390  24.954  17.974   4.998 -0.0188 -0.0364  0.2024
 1226CHOL    C214391  25.035  18.120   5.394  0.2670  0.1734  0.2028
 1227CHOL   ROH14392   0.885   9.603   4.468 -0.0790 -0.2594  0.0297
 1227CHOL    R114393   1.242   9.692   4.693 -0.0385 -0.0917 -0.0992
 1227CHOL    R214394   0.914   9.781   4.767 -0.0274 -0.0526 -0.0967
 1227CHOL    R314395   1.366   9.837   5.076  0.0306  0.1764 -0.2204
 1227CHOL    R414396   0.998   9.833   5.060  0.0276  0.1524 -0.1471
 1227CHOL    R514397   0.948   9.541   4.838 -0.0056 -0.0036  0.0618
 1227CHOL    R614398   1.174   9.695   5.217  0.0625  0.2656 -0.0855
 1227CHOL    C114399   1.219   9.985   5.421  0.0921  0.4085 -0.2924
 1227CHOL    C214400   1.431   9.983   5.784  0.3537 -0.4243 -0.3549
 1228CHOL   ROH14401  27.222  15.295   7.314  0.0666  0.0882 -0.0430
 1228CHOL    R114402  27.081  14.909   7.184  0.1089  0.0463  0.0338
 1228CHOL    R214403  27.140  15.193   6.991 -0.0017  0.0398 -0.0106
 1228CHOL    R314404  27.018  14.682   6.827  0.0568 -0.0011  0.0730
 1228CHOL    R414405  27.148  15.015   6.738 -0.0352  0.0168  0.0044
 1228CHOL    R514406  27.361  15.080   7.034  0.0332  0.0891 -0.0603
 1228CHOL    R614407  27.253  14.765   6.706  0.0070  0.0350  0.0001
 1228CHOL    C114408  27.038  14.712   6.425 -0.0599 -0.0363  0.0644
 1228CHOL    C214409  26.903  14.440   6.096  0.2109 -0.3584 -0.0261
 1229CHOL   ROH14410  20.415  18.081   4.180 -0.0585  0.1874  0.0148
 1229CHOL    R114411  20.692  18.013   4.504 -0.0347  0.1468 -0.0140
 1229CHOL    R214412  20.603  18.315   4.357 -0.1219  0.1759  0.0978
 1229CHOL    R314413  20.906  18.224   4.807 -0.0899  0.0966  0.0604
 1229CHOL    R414414  20.711  18.464   4.607 -0.1601  0.1155  0.1507
 1229CHOL    R514415  20.421  18.251   4.520 -0.1018  0.0653  0.0773
 1229CHOL    R614416  20.696  18.393   4.870 -0.1367  0.0149  0.1256
 1229CHOL    C114417  20.981  18.598   4.940 -0.1930  0.0697  0.1959
 1229CHOL    C214418  21.229  18.522   5.296 -0.1026 -0.0966  0.2545
 1230CHOL   ROH14419  19.333  26.406   7.266 -0.0963 -0.0535  0.0097
 1230CHOL    R114420  19.000  26.278   7.023  0.0119 -0.0910 -0.1204
 1230CHOL    R214421  19.272  26.474   6.929 -0.0219  0.0202  0.0107
 1230CHOL    R314422  18.876  26.256   6.615  0.1348 -0.0171 -0.1622
 1230CHOL    R414423  19.210  26.410   6.632  0.0826  0.0829 -0.0250
 1230CHOL    R514424  19.345  26.233   6.928  0.0540  0.0432 -0.0356
 1230CHOL    R614425  19.124  26.177   6.520  0.1870  0.0865 -0.1144
 1230CHOL    C114426  18.992  26.360   6.243  0.2087  0.1221 -0.1011
 1230CHOL    C214427  18.792  26.118   5.950 -0.1009 -0.4748  0.1928
 1231CHOL   ROH14428   5.362  24.076   4.495 -0.1018 -0.1705 -0.1081
 1231CHOL    R114429   5.214  23.966   4.885 -0.0808 -0.0694 -0.0712
 1231CHOL    R214430   5.542  24.032   4.790 -0.0651 -0.2395 -0.1404
 1231CHOL    R314431   5.337  23.951   5.294 -0.0073 -0.1015 -0.0942
 1231CHOL    R414432   5.615  24.075   5.088  0.0149 -0.2547 -0.1577
 1231CHOL    R514433   5.425  24.253   4.825  0.0513 -0.1778 -0.1325
 1231CHOL    R614434   5.470  24.194   5.287  0.1124 -0.1678 -0.1371
 1231CHOL    C114435   5.657  24.012   5.531  0.0702 -0.2443 -0.1613
 1231CHOL    C214436   5.551  23.901   5.983 -0.0138 -0.2340 -0.0626
 1232CHOL   ROH14437  12.895  12.587   5.476  0.1692  0.1417 -0.0904
 1232CHOL    R114438  12.958  12.718   5.883  0.2131 -0.0167 -0.0454
 1232CHOL    R214439  12.720  12.493   5.764  0.1218  0.1209 -0.1259
 1232CHOL    R314440  12.848  12.620   6.284  0.1606 -0.1018 -0.0803
 1232CHOL    R414441  12.683  12.386   6.052  0.0690  0.0422 -0.1616
 1232CHOL    R514442  12.940  12.371   5.786  0.0703  0.0215 -0.1592
 1232CHOL    R614443  12.869  12.346   6.247  0.0473 -0.0997 -0.1688
 1232CHOL    C114444  12.613  12.369   6.496  0.0495 -0.0733 -0.1688
 1232CHOL    C214445  12.579  12.406   6.930 -0.0955 -0.1531 -0.2222
 1233CHOL   ROH14446  17.562  14.142   6.591  0.0091 -0.1485 -0.0898
 1233CHOL    R114447  17.423  14.386   6.263 -0.0084 -0.1324 -0.0704
 1233CHOL    R214448  17.715  14.197   6.282  0.0775  0.0033 -0.0300
 1233CHOL    R314449  17.501  14.460   5.849  0.0823  0.0093 -0.0288
 1233CHOL    R414450  17.738  14.207   5.973  0.1669  0.0918 -0.0210
 1233CHOL    R514451  17.524  14.041   6.226  0.1693 -0.0753 -0.1274
 1233CHOL    R614452  17.541  14.194   5.785  0.2306  0.0437 -0.0844
 1233CHOL    C114453  17.754  14.360   5.551  0.2223  0.2062  0.0222
 1233CHOL    C214454  17.776  14.592   5.197  0.1093 -0.2741  0.0723
 1234CHOL   ROH14455  18.637  14.191   6.683  0.0005 -0.2337 -0.0551
 1234CHOL    R114456  18.881  14.150   6.330 -0.1516 -0.0359 -0.1856
 1234CHOL    R214457  18.569  14.010   6.393 -0.0563 -0.1978 -0.0645
 1234CHOL    R314458  18.860  14.014   5.925 -0.2852  0.0488 -0.2076
 1234CHOL    R414459  18.534  13.962   6.089 -0.1825 -0.1428 -0.0592
 1234CHOL    R514460  18.534  14.250   6.322 -0.2042 -0.1967  0.0077
 1234CHOL    R614461  18.609  14.120   5.879 -0.3592 -0.0579 -0.0599
 1234CHOL    C114462  18.610  13.834   5.665 -0.3286 -0.0076 -0.1275
 1234CHOL    C214463  18.842  13.727   5.330  0.2126 -0.1156  0.1096
 1235CHOL   ROH14464   1.930  12.682   3.951 -0.1213  0.0473  0.0530
 1235CHOL    R114465   1.886  12.459   4.317 -0.0291 -0.0150  0.0265
 1235CHOL    R214466   2.151  12.662   4.220 -0.0533  0.0012 -0.0058
 1235CHOL    R314467   2.058  12.424   4.707  0.0693 -0.0815 -0.0225
 1235CHOL    R414468   2.242  12.679   4.516  0.0214 -0.0492 -0.0257
 1235CHOL    R514469   1.966  12.811   4.306 -0.0315 -0.0131  0.0661
 1235CHOL    R614470   2.090  12.696   4.742  0.0784 -0.0876  0.0157
 1235CHOL    C114471   2.362  12.562   4.933  0.1265 -0.1203 -0.0754
 1235CHOL    C214472   2.492  12.363   5.311 -0.1498  0.0062  0.0449
 1236CHOL   ROH14473  17.785  24.703   6.962  0.0570  0.0045 -0.0160
 1236CHOL    R114474  17.474  24.774   6.671  0.0526  0.1011  0.0117
 1236CHOL    R214475  17.812  24.855   6.649  0.0729  0.0123 -0.0109
 1236CHOL    R314476  17.422  24.885   6.262  0.0500  0.1346  0.0211
 1236CHOL    R414477  17.781  24.882   6.342  0.0559  0.0349 -0.0072
 1236CHOL    R514478  17.787  24.611   6.593  0.0032  0.0212 -0.0206
 1236CHOL    R614479  17.633  24.732   6.169  0.0020  0.0826 -0.0028
 1236CHOL    C114480  17.630  25.004   5.937  0.0561  0.0947  0.0105
 1236CHOL    C214481  17.403  24.907   5.597  0.1713 -0.3524  0.1017
 1237CHOL   ROH14482  26.867   9.176   4.454 -0.1899  0.0475  0.0551
 1237CHOL    R114483  27.056   9.548   4.561 -0.1532  0.0208  0.0836
 1237CHOL    R214484  26.891   9.323   4.769 -0.1015 -0.0202  0.0804
 1237CHOL    R314485  27.187   9.767   4.904 -0.0558 -0.0552  0.0954
 1237CHOL    R414486  27.032   9.452   5.013 -0.0324 -0.0754  0.0700
 1237CHOL    R514487  27.124   9.235   4.727 -0.1143 -0.0164 -0.0016
 1237CHOL    R614488  27.287   9.546   5.036 -0.0243 -0.0856  0.0210
 1237CHOL    C114489  27.185   9.755   5.307  0.0533 -0.1414  0.0938
 1237CHOL    C214490  27.343  10.065   5.561  0.1795  0.2019  0.1892
 1238CHOL   ROH14491  17.450   1.426   7.644 -0.1653  0.1117  0.0384
 1238CHOL    R114492  17.546   1.365   7.228 -0.0752 -0.0947  0.0882
 1238CHOL    R214493  17.256   1.502   7.364 -0.0623  0.0690 -0.0451
 1238CHOL    R314494  17.412   1.476   6.837  0.0709 -0.2053  0.0059
 1238CHOL    R414495  17.190   1.627   7.088  0.0583 -0.0193 -0.1151
 1238CHOL    R514496  17.433   1.681   7.362  0.0046  0.0031 -0.0717
 1238CHOL    R614497  17.358   1.739   6.904  0.1493 -0.1567 -0.1166
 1238CHOL    C114498  17.118   1.676   6.648  0.1953 -0.1730 -0.1557
 1238CHOL    C214499  17.030   1.550   6.219  0.1825  0.1703 -0.0216
 1239CHOL   ROH14500   9.399  24.484   4.032  0.2304 -0.1114  0.1611
 1239CHOL    R114501   9.163  24.221   4.280 -0.0821  0.0772  0.0693
 1239CHOL    R214502   9.432  24.421   4.374  0.0665 -0.1640  0.1681
 1239CHOL    R314503   9.088  24.132   4.692 -0.2929  0.1142  0.0402
 1239CHOL    R414504   9.341  24.398   4.669 -0.0491 -0.1045  0.1379
 1239CHOL    R514505   9.226  24.567   4.361  0.1975  0.0185  0.1114
 1239CHOL    R614506   9.088  24.396   4.773 -0.0862  0.1104  0.0569
 1239CHOL    C114507   9.210  24.228   5.064 -0.3265 -0.0177  0.0858
 1239CHOL    C214508   9.336  23.894   5.315  0.1942  0.0219  0.1246
 1240CHOL   ROH14509  16.049   0.004   7.522  0.0465  0.0204 -0.0628
 1240CHOL    R114510  15.836  -0.025   7.148 -0.0330 -0.0186 -0.0147
 1240CHOL    R214511  16.170   0.055   7.199 -0.0340  0.0351 -0.0910
 1240CHOL    R314512  15.905  -0.043   6.726 -0.1246 -0.0136 -0.0303
 1240CHOL    R414513  16.228  -0.013   6.902 -0.0899  0.0401 -0.1030
 1240CHOL    R514514  16.147  -0.196   7.214  0.0090  0.0316 -0.0820
 1240CHOL    R614515  16.124  -0.212   6.747 -0.0933  0.0214 -0.0768
 1240CHOL    C114516  16.202  -0.023   6.454 -0.1890  0.0295 -0.0972
 1240CHOL    C214517  16.133  -0.054   6.023 -0.2060 -0.0129 -0.0257
 1241CHOL   ROH14518   5.808  17.805   7.184 -0.0735  0.3462  0.0000
 1241CHOL    R114519   5.630  17.952   6.819 -0.0955  0.1044 -0.0885
 1241CHOL    R214520   5.926  17.773   6.858 -0.0450  0.2106  0.0230
 1241CHOL    R314521   5.662  17.911   6.395 -0.0587 -0.1078 -0.0664
 1241CHOL    R414522   5.916  17.699   6.557 -0.0057  0.0505  0.0599
 1241CHOL    R514523   5.734  17.609   6.867  0.0025  0.1586  0.0966
 1241CHOL    R614524   5.700  17.637   6.401  0.0215 -0.0939  0.0788
 1241CHOL    C114525   5.884  17.733   6.110  0.0106 -0.1919  0.0395
 1241CHOL    C214526   5.956  17.850   5.677 -0.1610 -0.2601 -0.2228
 1242CHOL   ROH14527   3.429  24.085   3.968  0.2391 -0.2915  0.2394
 1242CHOL    R114528   3.143  24.024   4.285  0.0239 -0.0254  0.1007
 1242CHOL    R214529   3.434  24.214   4.292  0.1344 -0.1972  0.2045
 1242CHOL    R314530   3.034  24.179   4.669 -0.0989  0.1550 -0.0053
 1242CHOL    R414531   3.327  24.363   4.541  0.0835 -0.0573  0.0999
 1242CHOL    R514532   3.256  24.350   4.178  0.2782 -0.1237  0.0630
 1242CHOL    R614533   3.072  24.444   4.598  0.0984  0.1124 -0.0658
 1242CHOL    C114534   3.151  24.447   4.947 -0.0940  0.1696 -0.0213
 1242CHOL    C214535   3.122  24.479   5.350  0.2804  0.0328 -0.4292
 1243CHOL   ROH14536   1.479  22.053   7.282 -0.1606  0.1686 -0.0623
 1243CHOL    R114537   1.651  21.884   6.925 -0.0852  0.0385  0.0345
 1243CHOL    R214538   1.437  22.158   6.952 -0.0958  0.0457 -0.1099
 1243CHOL    R314539   1.709  21.973   6.510 -0.0031 -0.1140  0.0127
 1243CHOL    R414540   1.525  22.249   6.669 -0.0403 -0.0578 -0.1267
 1243CHOL    R514541   1.671  22.235   7.009 -0.1086  0.0707 -0.0912
 1243CHOL    R614542   1.771  22.239   6.553 -0.0165 -0.0970 -0.0734
 1243CHOL    C114543   1.618  22.248   6.230  0.0485 -0.2192 -0.1081
 1243CHOL    C214544   1.750  22.165   5.817  0.1210  0.0958  0.1496
 1244CHOL   ROH14545  11.899  17.488   7.108  0.0434  0.0166 -0.0778
 1244CHOL    R114546  11.635  17.584   6.780  0.0638  0.3411 -0.0020
 1244CHOL    R214547  11.983  17.580   6.782  0.0631 -0.0227 -0.0837
 1244CHOL    R314548  11.640  17.641   6.356  0.0229  0.3998  0.0052
 1244CHOL    R414549  11.981  17.565   6.473 -0.0247  0.0254 -0.0856
 1244CHOL    R514550  11.902  17.342   6.757 -0.1917  0.0633 -0.1011
 1244CHOL    R614551  11.812  17.430   6.307 -0.2074  0.2254 -0.0670
 1244CHOL    C114552  11.892  17.656   6.042 -0.0331  0.1834 -0.0513
 1244CHOL    C214553  11.626  17.852   5.774  0.1887  0.0480 -0.0013
 1245CHOL   ROH14554  17.714  13.645   6.720  0.2745 -0.1112 -0.1318
 1245CHOL    R114555  17.726  13.755   6.303 -0.0629  0.0359 -0.1055
 1245CHOL    R214556  17.523  13.519   6.457  0.1971 -0.1581 -0.0535
 1245CHOL    R314557  17.503  13.709   5.941 -0.2583  0.0007  0.0180
 1245CHOL    R414558  17.332  13.529   6.213  0.0358 -0.2095  0.0684
 1245CHOL    R514559  17.422  13.747   6.498  0.0628 -0.2402  0.0834
 1245CHOL    R614560  17.256  13.743   6.062 -0.2090 -0.2108  0.1848
 1245CHOL    C114561  17.178  13.523   5.791 -0.2249 -0.1766  0.1614
 1245CHOL    C214562  17.115  13.503   5.369  0.2578  0.2123 -0.0970
 1246CHOL   ROH14563  18.155  18.305   4.093 -0.2102  0.1337 -0.0669
 1246CHOL    R114564  18.163  17.984   4.382 -0.0214  0.0912 -0.1180
 1246CHOL    R214565  18.158  18.327   4.441 -0.2249  0.0797 -0.0633
 1246CHOL    R314566  18.106  17.913   4.800  0.0193 -0.0096 -0.1295
 1246CHOL    R414567  18.063  18.272   4.731 -0.1935 -0.0233 -0.0723
 1246CHOL    R514568  17.922  18.253   4.389 -0.1817 -0.0518 -0.0757
 1246CHOL    R614569  17.889  18.082   4.823 -0.0821 -0.1417 -0.1029
 1246CHOL    C114570  18.037  18.105   5.147 -0.0966 -0.1057 -0.0989
 1246CHOL    C214571  17.934  18.004   5.562 -0.0259  0.0345  0.0929
 1247CHOL   ROH14572  25.249  13.736   4.641  0.1163  0.1875  0.0755
 1247CHOL    R114573  25.243  13.438   4.954  0.1017  0.1250  0.0161
 1247CHOL    R214574  25.519  13.600   4.817  0.1114  0.1235  0.0339
 1247CHOL    R314575  25.495  13.267   5.254  0.0997  0.0376 -0.0317
 1247CHOL    R414576  25.685  13.519   5.065  0.1163  0.0557  0.0089
 1247CHOL    R514577  25.412  13.756   4.984  0.1369  0.1012  0.0711
 1247CHOL    R614578  25.610  13.508   5.328  0.1289  0.0109  0.0108
 1247CHOL    C114579  25.873  13.276   5.392  0.1079 -0.0303 -0.0502
 1247CHOL    C214580  26.014  12.963   5.686  0.1045 -0.1084  0.4255
 1248CHOL   ROH14581   7.452   4.020   6.745  0.0437  0.1612  0.0526
 1248CHOL    R114582   7.199   4.092   6.403  0.0160  0.1220  0.0649
 1248CHOL    R214583   7.485   3.895   6.421  0.0894  0.2245  0.0325
 1248CHOL    R314584   7.123   3.944   6.009  0.0698  0.1563  0.0414
 1248CHOL    R414585   7.397   3.750   6.161  0.1420  0.2331  0.0099
 1248CHOL    R514586   7.293   3.762   6.516  0.1384  0.1381  0.0122
 1248CHOL    R614587   7.147   3.677   6.080  0.1685  0.1534 -0.0009
 1248CHOL    C114588   7.259   3.675   5.740  0.1686  0.2487 -0.0017
 1248CHOL    C214589   7.362   3.743   5.317  0.0074  0.0964 -0.1199
 1249CHOL   ROH14590  10.458   5.409   7.077  0.2159  0.0413 -0.0462
 1249CHOL    R114591  10.671   5.582   6.744  0.1920  0.0163 -0.0746
 1249CHOL    R214592  10.594   5.247   6.800  0.0556  0.0385 -0.1245
 1249CHOL    R314593  10.810   5.483   6.352  0.0248  0.0373 -0.1400
 1249CHOL    R414594  10.644   5.190   6.499 -0.0641  0.0808 -0.1530
 1249CHOL    R514595  10.388   5.360   6.707  0.0776  0.1536 -0.0361
 1249CHOL    R614596  10.582   5.342   6.281 -0.0623  0.1569 -0.1006
 1249CHOL    C114597  10.836   5.175   6.093 -0.1969  0.0807 -0.2164
 1249CHOL    C214598  10.900   5.222   5.671 -0.3679  0.1604 -0.1766
 1250CHOL   ROH14599  10.880   8.542   7.262  0.0299  0.2404 -0.1158
 1250CHOL    R114600  11.118   8.627   6.912 -0.0361  0.2318 -0.1629
 1250CHOL    R214601  10.852   8.404   6.943  0.0512  0.1392 -0.0742
 1250CHOL    R314602  11.121   8.563   6.490 -0.0532  0.1128 -0.1454
 1250CHOL    R414603  10.823   8.403   6.635  0.0214  0.0404 -0.0713
 1250CHOL    R514604  10.756   8.636   6.915 -0.0396  0.0954 -0.1309
 1250CHOL    R614605  10.850   8.609   6.458 -0.0740  0.0009 -0.1326
 1250CHOL    C114606  10.918   8.374   6.196 -0.0104 -0.0477 -0.0727
 1250CHOL    C214607  11.098   8.157   5.863  0.0316 -0.1096 -0.2161
 1251CHOL   ROH14608  14.212   6.092   4.601 -0.1348  0.0269 -0.0062
 1251CHOL    R114609  14.035   6.170   4.987 -0.1063 -0.0067  0.0137
 1251CHOL    R214610  14.336   6.290   4.860 -0.1076 -0.0090  0.0083
 1251CHOL    R314611  14.075   6.431   5.323 -0.0708 -0.0467  0.0406
 1251CHOL    R414612  14.333   6.514   5.074 -0.0818 -0.0329  0.0338
 1251CHOL    R514613  14.149   6.430   4.764 -0.1059  0.0121  0.0357
 1251CHOL    R614614  14.122   6.657   5.171 -0.0679 -0.0321  0.0631
 1251CHOL    C114615  14.308   6.727   5.469 -0.0453 -0.0759  0.0594
 1251CHOL    C214616  14.385   6.732   5.895 -0.3698  0.2862  0.0905
 1252CHOL   ROH14617  20.963  12.340   6.763  0.1348  0.1156 -0.0440
 1252CHOL    R114618  21.338  12.327   6.551  0.1167 -0.0010 -0.0698
 1252CHOL    R214619  21.028  12.211   6.445  0.1009 -0.0297  0.0072
 1252CHOL    R314620  21.496  12.255   6.160  0.0805 -0.1842 -0.0513
 1252CHOL    R414621  21.131  12.212   6.153  0.0774 -0.1657 -0.0024
 1252CHOL    R514622  21.034  12.461   6.410  0.1132 -0.0453 -0.1043
 1252CHOL    R614623  21.294  12.391   6.028  0.0778 -0.2306 -0.0957
 1252CHOL    C114624  21.385  12.141   5.790  0.0434 -0.3425  0.0078
 1252CHOL    C214625  21.651  12.091   5.469 -0.1665  0.0079 -0.0479
 1253CHOL   ROH14626  14.025  18.686   4.164  0.0512  0.1334  0.1454
 1253CHOL    R114627  14.366  18.950   4.166  0.0052  0.1940  0.0720
 1253CHOL    R214628  14.230  18.772   4.432  0.0661  0.2060  0.1112
 1253CHOL    R314629  14.699  19.060   4.411  0.0132  0.2858  0.0203
 1253CHOL    R414630  14.496  18.808   4.587  0.0770  0.2736  0.0769
 1253CHOL    R514631  14.373  18.613   4.297  0.0791  0.2127  0.1168
 1253CHOL    R614632  14.753  18.802   4.494  0.0680  0.3063  0.0493
 1253CHOL    C114633  14.859  18.995   4.775  0.0653  0.3631  0.0116
 1253CHOL    C214634  15.063  19.275   5.008  0.1990 -0.1861 -0.1151
 1254CHOL   ROH14635   1.099   1.083   6.966 -0.2135  0.0140  0.0981
 1254CHOL    R114636   1.186   1.291   6.598 -0.1122  0.0230  0.1267
 1254CHOL    R214637   1.160   0.948   6.650 -0.2056  0.0248  0.0949
 1254CHOL    R314638   1.209   1.224   6.176 -0.0731  0.0521  0.1241
 1254CHOL    R414639   1.122   0.908   6.345 -0.1751  0.0597  0.0865
 1254CHOL    R514640   0.927   1.042   6.630 -0.1795  0.0853  0.0715
 1254CHOL    R614641   0.985   1.062   6.166 -0.1127  0.1093  0.0808
 1254CHOL    C114642   1.185   0.930   5.901 -0.1104  0.0811  0.0965
 1254CHOL    C214643   1.192   0.929   5.466  0.1922 -0.2175 -0.0147
 1255CHOL   ROH14644   7.917  22.601   4.050 -0.2341 -0.1595 -0.0597
 1255CHOL    R114645   7.760  22.592   4.452 -0.1586 -0.0056 -0.0262
 1255CHOL    R214646   8.068  22.476   4.339 -0.1555  0.0049 -0.0283
 1255CHOL    R314647   7.885  22.524   4.856 -0.0707  0.2068 -0.0165
 1255CHOL    R414648   8.173  22.480   4.630 -0.1028  0.1616 -0.0487
 1255CHOL    R514649   8.085  22.726   4.368 -0.2013  0.0224 -0.1473
 1255CHOL    R614650   8.124  22.661   4.829 -0.1034  0.2439 -0.1234
 1255CHOL    C114651   8.206  22.413   5.073 -0.0078  0.3734 -0.0227
 1255CHOL    C214652   8.189  22.235   5.494 -0.3146 -0.3655 -0.0331
 1256CHOL   ROH14653   9.613  23.350   7.105  0.0922  0.1844  0.1607
 1256CHOL    R114654   9.559  23.703   6.863  0.0221  0.0786  0.0208
 1256CHOL    R214655   9.607  23.375   6.757  0.0497  0.0402  0.1507
 1256CHOL    R314656   9.477  23.819   6.459 -0.0377 -0.0977 -0.0185
 1256CHOL    R414657   9.494  23.452   6.479  0.0087 -0.0879  0.1311
 1256CHOL    R514658   9.365  23.402   6.822  0.0539  0.0378  0.1671
 1256CHOL    R614659   9.289  23.621   6.416 -0.0187 -0.1385  0.0845
 1256CHOL    C114660   9.427  23.666   6.090 -0.0614 -0.2564  0.0496
 1256CHOL    C214661   9.505  23.947   5.776 -0.0074  0.0072 -0.0661
 1257CHOL   ROH14662  10.165  22.991   3.832 -0.1734 -0.1335 -0.0260
 1257CHOL    R114663  10.322  23.177   4.189 -0.1424 -0.0813 -0.0667
 1257CHOL    R214664  10.146  22.878   4.161 -0.1195 -0.1000 -0.0111
 1257CHOL    R314665  10.401  23.091   4.600 -0.0800 -0.0300 -0.0679
 1257CHOL    R414666  10.251  22.795   4.441 -0.0749 -0.0606 -0.0161
 1257CHOL    R514667  10.386  22.833   4.098 -0.1239 -0.0854 -0.0382
 1257CHOL    R614668  10.497  22.836   4.552 -0.0637 -0.0266 -0.0531
 1257CHOL    C114669  10.354  22.803   4.878 -0.0174 -0.0044 -0.0304
 1257CHOL    C214670  10.611  22.787   5.225  0.0290 -0.2814  0.2725
 1258CHOL   ROH14671  27.089  11.544   7.319 -0.1424  0.1410  0.0426
 1258CHOL    R114672  26.761  11.641   7.055 -0.0199  0.0662 -0.1398
 1258CHOL    R214673  26.935  11.341   7.080 -0.0333  0.0715  0.0308
 1258CHOL    R314674  26.479  11.455   6.793  0.1002 -0.0092 -0.2162
 1258CHOL    R414675  26.701  11.198   6.936  0.0323  0.0308 -0.0360
 1258CHOL    R514676  26.767  11.349   7.267 -0.1207  0.1290 -0.0495
 1258CHOL    R614677  26.432  11.239   6.959  0.0210  0.0407 -0.1734
 1258CHOL    C114678  26.383  11.097   6.635  0.1707 -0.0554 -0.1551
 1258CHOL    C214679  26.177  10.900   6.306  0.1317  0.1552 -0.1371
 1259CHOL   ROH14680  18.303  27.410   7.128 -0.1080  0.0401  0.0238
 1259CHOL    R114681  18.495  27.698   6.870 -0.0893  0.0611  0.0611
 1259CHOL    R214682  18.394  27.374   6.793 -0.0533  0.0555  0.0369
 1259CHOL    R314683  18.582  27.768   6.458 -0.0301  0.0783  0.0764
 1259CHOL    R414684  18.406  27.446   6.492 -0.0117  0.0644  0.0406
 1259CHOL    R514685  18.191  27.524   6.783 -0.0628  0.0408  0.0092
 1259CHOL    R614686  18.336  27.679   6.367 -0.0095  0.0624  0.0358
 1259CHOL    C114687  18.551  27.596   6.094  0.0391  0.0855  0.0671
 1259CHOL    C214688  18.853  27.705   5.824  0.2051 -0.0704  0.3561
 1260CHOL   ROH14689  19.828  21.883   7.293 -0.0448  0.1842  0.0290
 1260CHOL    R114690  19.619  21.796   6.925  0.0005  0.0275  0.0397
 1260CHOL    R214691  19.720  22.106   7.047 -0.0521  0.0841 -0.0593
 1260CHOL    R314692  19.509  21.979   6.555  0.0098 -0.1167 -0.0350
 1260CHOL    R414693  19.691  22.223   6.762 -0.0419 -0.0196 -0.1034
 1260CHOL    R514694  19.920  21.995   6.941 -0.0276  0.0735 -0.0021
 1260CHOL    R614695  19.750  22.110   6.521 -0.0047 -0.0961 -0.0584
 1260CHOL    C114696  19.521  22.332   6.360 -0.0198 -0.1829 -0.1575
 1260CHOL    C214697  19.235  22.491   6.077  0.4670  0.0773 -0.1407
 1261CHOL   ROH14698  27.598   1.677   6.979  0.1318  0.1692  0.1304
 1261CHOL    R114699  27.682   2.049   6.776  0.3215  0.0638  0.0121
 1261CHOL    R214700  27.591   1.744   6.636 -0.0199  0.1111  0.1215
 1261CHOL    R314701  27.640   2.235   6.394  0.2452  0.0280  0.0029
 1261CHOL    R414702  27.509   1.891   6.376 -0.0543  0.1312  0.1437
 1261CHOL    R514703  27.382   1.855   6.722  0.1236  0.3028  0.2292
 1261CHOL    R614704  27.387   2.134   6.346  0.1290  0.2296  0.1749
 1261CHOL    C114705  27.521   2.159   6.016 -0.0482  0.0555  0.0873
 1261CHOL    C214706  27.767   2.444   5.791  0.1291 -0.1466  0.4852
 1262CHOL   ROH14707  12.627   0.048   4.390  0.0224  0.0226 -0.0150
 1262CHOL    R114708  12.388   0.037   4.749  0.0988 -0.1746  0.0311
 1262CHOL    R214709  12.725   0.121   4.717  0.0503  0.0051 -0.0194
 1262CHOL    R314710  12.398   0.163   5.157  0.1155 -0.2542  0.0553
 1262CHOL    R414711  12.712   0.260   4.993  0.0336 -0.0581  0.0119
 1262CHOL    R514712  12.587   0.322   4.650 -0.0669 -0.0510  0.0494
 1262CHOL    R614713  12.511   0.409   5.103 -0.0217 -0.1837  0.0829
 1262CHOL    C114714  12.638   0.337   5.430  0.0805 -0.1863  0.0429
 1262CHOL    C214715  12.667   0.534   5.835  0.1003  0.1685 -0.4364
 1263CHOL   ROH14716   9.574   7.041   6.605  0.2226  0.0295 -0.1232
 1263CHOL    R114717   9.746   6.985   6.213  0.0854 -0.0208 -0.1769
 1263CHOL    R214718   9.480   7.190   6.304  0.1668  0.0499 -0.0958
 1263CHOL    R314719   9.745   7.157   5.822  0.0075 -0.0257 -0.1790
 1263CHOL    R414720   9.518   7.349   6.040  0.1256  0.0364 -0.1101
 1263CHOL    R514721   9.694   7.309   6.363  0.2169 -0.0050 -0.1645
 1263CHOL    R614722   9.749   7.419   5.912  0.1041 -0.0255 -0.1835
 1263CHOL    C114723   9.569   7.448   5.605  0.0150  0.0173 -0.1276
 1263CHOL    C214724   9.656   7.450   5.174 -0.0286  0.3507  0.4076
 1264CHOL   ROH14725  22.811   1.449   7.404  0.1087  0.1617 -0.0138
 1264CHOL    R114726  22.510   1.386   7.102  0.1319  0.0040 -0.0047
 1264CHOL    R214727  22.854   1.418   7.059  0.1273  0.0575 -0.0022
 1264CHOL    R314728  22.470   1.277   6.690  0.1679 -0.1383  0.0289
 1264CHOL    R414729  22.827   1.286   6.780  0.1630 -0.0392  0.0392
 1264CHOL    R514730  22.805   1.182   7.134  0.1710  0.0722  0.0730
 1264CHOL    R614731  22.665   1.082   6.699  0.2061 -0.0972  0.1000
 1264CHOL    C114732  22.689   1.196   6.362  0.1956 -0.2027  0.0632
 1264CHOL    C214733  22.453   1.125   5.976 -0.1294  0.0171 -0.0055
 1265CHOL   ROH14734  17.103  21.450   4.693  0.1291 -0.0977 -0.0662
 1265CHOL    R114735  17.221  21.427   5.108  0.2041  0.0187 -0.0806
 1265CHOL    R214736  16.952  21.600   4.970  0.1120 -0.1124 -0.0676
 1265CHOL    R314737  17.074  21.515   5.500  0.2302  0.0247 -0.0722
 1265CHOL    R414738  16.822  21.614   5.250  0.1505 -0.1182 -0.0494
 1265CHOL    R514739  16.886  21.358   4.991  0.2131 -0.1360 -0.0167
 1265CHOL    R614740  16.817  21.426   5.448  0.2575 -0.0876 -0.0171
 1265CHOL    C114741  16.762  21.684   5.690  0.1917 -0.0695 -0.0513
 1265CHOL    C214742  16.895  21.810   6.088 -0.1262  0.2063  0.3471
 1266CHOL   ROH14743  11.138  13.673   6.823 -0.1185 -0.2222 -0.1111
 1266CHOL    R114744  11.052  13.687   6.400 -0.0177 -0.0834 -0.1278
 1266CHOL    R214745  11.203  13.931   6.597 -0.0286 -0.1636 -0.0192
 1266CHOL    R314746  11.143  13.915   6.050  0.0969  0.0086 -0.0387
 1266CHOL    R414747  11.314  14.064   6.340  0.0506 -0.1024  0.0463
 1266CHOL    R514748  11.377  13.758   6.540 -0.0399 -0.1714 -0.0300
 1266CHOL    R614749  11.411  13.947   6.113  0.0870 -0.0484  0.0338
 1266CHOL    C114750  11.340  14.246   5.930  0.1728  0.0169  0.1062
 1266CHOL    C214751  11.315  14.311   5.499 -0.2740  0.1554 -0.2328
 1267CHOL   ROH14752  12.875  18.544   6.627  0.0622 -0.1255 -0.0437
 1267CHOL    R114753  13.034  18.304   6.307 -0.1155 -0.1589 -0.1080
 1267CHOL    R214754  12.770  18.530   6.295  0.0178  0.0028 -0.0358
 1267CHOL    R314755  13.018  18.266   5.881 -0.1838 -0.0657 -0.1142
 1267CHOL    R414756  12.798  18.541   5.987 -0.0082  0.0467 -0.0367
 1267CHOL    R514757  12.985  18.661   6.283  0.0958 -0.1234 -0.0322
 1267CHOL    R614758  13.024  18.538   5.833 -0.0253 -0.0586 -0.0607
 1267CHOL    C114759  12.833  18.417   5.556 -0.1281  0.1100 -0.0652
 1267CHOL    C214760  12.866  18.272   5.182 -0.0706 -0.0148 -0.0057
 1268CHOL   ROH14761   1.869  21.130   6.998  0.1431  0.0178 -0.0044
 1268CHOL    R114762   1.692  21.178   6.607  0.0702 -0.0296  0.0227
 1268CHOL    R214763   1.995  21.029   6.688  0.0852 -0.0199 -0.0158
 1268CHOL    R314764   1.733  21.041   6.204 -0.0053 -0.0786  0.0313
 1268CHOL    R414765   1.994  20.887   6.413  0.0336 -0.0535  0.0015
 1268CHOL    R514766   1.812  20.862   6.734  0.0935 -0.0143  0.0388
 1268CHOL    R614767   1.785  20.779   6.275  0.0076 -0.0701  0.0536
 1268CHOL    C114768   1.970  20.813   5.970 -0.0492 -0.1072  0.0148
 1268CHOL    C214769   1.969  20.548   5.613 -0.1398  0.1493 -0.1401
 1269CHOL   ROH14770  13.172  24.528   4.225  0.1672  0.3985 -0.0045
 1269CHOL    R114771  13.119  24.763   4.583 -0.0637  0.1631  0.1189
 1269CHOL    R214772  13.193  24.423   4.557  0.1964  0.2301 -0.0581
 1269CHOL    R314773  13.182  24.743   5.005 -0.1117 -0.0214  0.1185
 1269CHOL    R414774  13.290  24.427   4.851  0.1507  0.1423 -0.0417
 1269CHOL    R514775  13.406  24.553   4.523  0.1050  0.4117  0.0433
 1269CHOL    R614776  13.429  24.620   4.985 -0.0140  0.1754  0.0849
 1269CHOL    C114777  13.306  24.492   5.296  0.0354 -0.0900 -0.0020
 1269CHOL    C214778  13.270  24.604   5.698  0.3125  0.0729 -0.2837
 1270CHOL   ROH14779  24.153   3.717   7.000  0.2717 -0.2676  0.0177
 1270CHOL    R114780  24.239   3.913   6.625  0.0574 -0.1275  0.0399
 1270CHOL    R214781  24.428   3.672   6.790  0.2572 -0.0369 -0.0537
 1270CHOL    R314782  24.498   3.882   6.286  0.0048  0.1204 -0.0250
 1270CHOL    R414783  24.578   3.614   6.525  0.2389  0.1212 -0.1000
 1270CHOL    R514784  24.242   3.554   6.668  0.3088 -0.1368 -0.0373
 1270CHOL    R614785  24.482   3.606   6.270  0.1875  0.1114 -0.0803
 1270CHOL    C114786  24.810   3.670   6.145  0.1184  0.3606 -0.1404
 1270CHOL    C214787  25.008   3.771   5.767 -0.1640 -0.0200 -0.3021
 1271CHOL   ROH14788   0.251   2.383   7.430  0.0827 -0.0482  0.0483
 1271CHOL    R114789   0.138   2.527   7.039 -0.0837  0.0559  0.1337
 1271CHOL    R214790   0.008   2.256   7.215  0.0707 -0.0610  0.0694
 1271CHOL    R314791  -0.170   2.483   6.746 -0.1502  0.0479  0.2043
 1271CHOL    R414792  -0.242   2.262   7.031  0.0159 -0.0883  0.1427
 1271CHOL    R514793  -0.099   2.465   7.306  0.0148 -0.1358  0.1787
 1271CHOL    R614794  -0.377   2.477   6.930 -0.0964 -0.1012  0.2615
 1271CHOL    C114795  -0.504   2.271   6.667 -0.0912 -0.0516  0.2201
 1271CHOL    C214796  -0.791   2.312   6.361  0.3373 -0.1545 -0.2000
 1272CHOL   ROH14797  14.131  22.308   5.059 -0.0403 -0.0855  0.0963
 1272CHOL    R114798  13.752  22.270   5.260 -0.0199 -0.2068  0.1132
 1272CHOL    R214799  14.048  22.100   5.327  0.0382 -0.1109  0.1014
 1272CHOL    R314800  13.578  22.105   5.615  0.0489 -0.2605  0.1220
 1272CHOL    R414801  13.938  22.028   5.608  0.0738 -0.1445  0.1068
 1272CHOL    R514802  14.064  22.329   5.432 -0.0310 -0.1049  0.0992
 1272CHOL    R614803  13.788  22.179   5.779  0.0326 -0.1915  0.1123
 1272CHOL    C114804  13.670  21.880   5.937  0.1358 -0.2289  0.1196
 1272CHOL    C214805  13.472  21.919   6.338 -0.1068 -0.0312 -0.2201
 1273CHOL   ROH14806   7.849  19.328   7.623  0.0045 -0.1691  0.0551
 1273CHOL    R114807   8.051  19.055   7.358  0.0215 -0.1059  0.0027
 1273CHOL    R214808   7.746  19.215   7.309  0.0515 -0.0503 -0.0038
 1273CHOL    R314809   8.040  18.915   6.954  0.0829  0.0315 -0.0474
 1273CHOL    R414810   7.769  19.158   7.006  0.1040  0.0493 -0.0189
 1273CHOL    R514811   7.930  19.379   7.255  0.0836 -0.0553  0.0878
 1273CHOL    R614812   7.989  19.164   6.844  0.1366  0.0753  0.0263
 1273CHOL    C114813   7.825  18.945   6.614  0.1537  0.1740 -0.0802
 1273CHOL    C214814   7.842  18.826   6.204 -0.2378 -0.0574 -0.0700
 1274CHOL   ROH14815  27.110  18.510   4.859 -0.1934  0.0850  0.2539
 1274CHOL    R114816  27.489  18.326   4.952 -0.0703  0.1887 -0.0287
 1274CHOL    R214817  27.358  18.624   5.076 -0.1100  0.0975  0.1528
 1274CHOL    R314818  27.810  18.352   5.234  0.0828  0.2042 -0.2027
 1274CHOL    R414819  27.559  18.610   5.311  0.0308  0.0860  0.0335
 1274CHOL    R514820  27.252  18.434   5.203  0.0320  0.0128  0.1469
 1274CHOL    R614821  27.645  18.393   5.453  0.1919  0.0658 -0.0924
 1274CHOL    C114822  27.941  18.571   5.546  0.1808  0.1403 -0.1983
 1274CHOL    C214823  28.384  18.552   5.495  0.3787 -0.2092  0.0981
 1275CHOL   ROH14824   6.137  22.422   7.418  0.2795  0.1101  0.1008
 1275CHOL    R114825   6.364  22.261   7.088  0.2453  0.1127  0.0760
 1275CHOL    R214826   6.140  22.528   7.085  0.1779  0.0567  0.0823
 1275CHOL    R314827   6.479  22.354   6.687  0.1313  0.0758  0.0343
 1275CHOL    R414828   6.265  22.624   6.818  0.0936  0.0443  0.0381
 1275CHOL    R514829   6.361  22.611   7.176  0.1778  0.1267  0.0190
 1275CHOL    R614830   6.526  22.622   6.739  0.0763  0.0965 -0.0206
 1275CHOL    C114831   6.421  22.628   6.397 -0.0028  0.0143  0.0019
 1275CHOL    C214832   6.283  22.473   6.006  0.0332  0.1281 -0.1463
 1276CHOL   ROH14833   4.304  22.319   5.654 -0.0091  0.2895  0.0489
 1276CHOL    R114834   4.349  22.268   5.228  0.0172  0.1898  0.0632
 1276CHOL    R214835   4.289  22.562   5.405 -0.0755  0.2190 -0.0162
 1276CHOL    R314836   4.407  22.496   4.871 -0.0420  0.1129  0.0041
 1276CHOL    R414837   4.384  22.725   5.159 -0.1179  0.1828 -0.0569
 1276CHOL    R514838   4.535  22.510   5.421 -0.0603  0.2971  0.0041
 1276CHOL    R614839   4.588  22.672   4.985 -0.0974  0.1976 -0.0374
 1276CHOL    C114840   4.430  22.876   4.739 -0.1525  0.0851 -0.0962
 1276CHOL    C214841   4.379  22.961   4.309 -0.0052 -0.0844  0.1489
 1277CHOL   ROH14842   8.396  10.752   3.716  0.0259 -0.1011  0.1199
 1277CHOL    R114843   8.167  10.866   4.063  0.2369 -0.0402  0.2416
 1277CHOL    R214844   8.280  10.549   3.975 -0.0493 -0.1021  0.0854
 1277CHOL    R314845   8.040  10.713   4.442  0.2446 -0.0771  0.2294
 1277CHOL    R414846   8.237  10.456   4.268 -0.0225 -0.1753  0.0664
 1277CHOL    R514847   8.472  10.674   4.081  0.0898 -0.2955  0.0660
 1277CHOL    R614848   8.282  10.592   4.500  0.1686 -0.2954  0.1019
 1277CHOL    C114849   8.049  10.379   4.668  0.0533 -0.1692  0.1033
 1277CHOL    C214850   7.980  10.354   5.106 -0.1742 -0.0361  0.3303
 1278CHOL   ROH14851   1.263   5.629   4.048 -0.1343  0.0014  0.1638
 1278CHOL    R114852   1.336   5.377   4.390 -0.1529 -0.0092  0.1600
 1278CHOL    R214853   1.304   5.723   4.381 -0.0037  0.0050  0.1472
 1278CHOL    R314854   1.336   5.389   4.817 -0.0330  0.0182  0.1595
 1278CHOL    R414855   1.250   5.722   4.686  0.0774  0.0484  0.1621
 1278CHOL    R514856   1.072   5.623   4.376 -0.0494  0.1059  0.2155
 1278CHOL    R614857   1.107   5.544   4.836  0.0389  0.1199  0.2115
 1278CHOL    C114858   1.289   5.644   5.127  0.1612  0.0591  0.1566
 1278CHOL    C214859   1.198   5.493   5.534 -0.1324  0.0002  0.2890
 1279CHOL   ROH14860   3.851   3.575   4.093  0.1541  0.3382 -0.0212
 1279CHOL    R114861   3.623   3.622   4.456  0.0701  0.2746 -0.0653
 1279CHOL    R214862   3.966   3.575   4.422  0.0641  0.1697  0.0116
 1279CHOL    R314863   3.676   3.696   4.874 -0.0186  0.0929 -0.0207
 1279CHOL    R414864   4.005   3.683   4.710  0.0223  0.0437  0.0649
 1279CHOL    R514865   3.915   3.818   4.378  0.1604  0.2052  0.0921
 1279CHOL    R614866   3.875   3.885   4.839  0.0571  0.0389  0.1080
 1279CHOL    C114867   3.963   3.741   5.154 -0.0792 -0.1152  0.0770
 1279CHOL    C214868   3.963   3.799   5.569 -0.0771  0.1302  0.1169
 1280CHOL   ROH14869  13.734  15.339   3.956 -0.1878  0.0579 -0.0360
 1280CHOL    R114870  13.444  15.137   4.204 -0.2021  0.1435  0.0173
 1280CHOL    R214871  13.791  15.133   4.232 -0.1965  0.0186 -0.0635
 1280CHOL    R314872  13.414  14.931   4.578 -0.1885  0.1287  0.0102
 1280CHOL    R414873  13.763  15.034   4.524 -0.1638  0.0087 -0.0637
 1280CHOL    R514874  13.707  15.348   4.335 -0.0967  0.0416 -0.0291
 1280CHOL    R614875  13.580  15.105   4.714 -0.0948  0.0607 -0.0162
 1280CHOL    C114876  13.639  14.796   4.884 -0.1647  0.0281 -0.0511
 1280CHOL    C214877  13.495  14.565   5.224 -0.0510 -0.1504 -0.0968
 1281CHOL   ROH14878  15.771  14.749   3.717 -0.0725  0.1128  0.0083
 1281CHOL    R114879  15.517  14.657   4.054 -0.1037 -0.0125 -0.0487
 1281CHOL    R214880  15.813  14.500   3.958 -0.0314  0.1000 -0.0119
 1281CHOL    R314881  15.516  14.431   4.417 -0.0932 -0.0536 -0.0742
 1281CHOL    R414882  15.837  14.381   4.243 -0.0432  0.0763 -0.0208
 1281CHOL    R514883  15.873  14.712   4.081 -0.1272  0.1074  0.0232
 1281CHOL    R614884  15.777  14.494   4.484 -0.1271  0.0289 -0.0189
 1281CHOL    C114885  15.739  14.169   4.628 -0.0415 -0.0006 -0.0626
 1281CHOL    C214886  15.606  13.793   4.810  0.0302 -0.0921 -0.0575
 1282CHOL   ROH14887   2.354   2.988   7.259 -0.1176  0.1188 -0.2412
 1282CHOL    R114888   2.145   2.801   6.931 -0.0372 -0.1075 -0.1656
 1282CHOL    R214889   2.375   3.062   6.918 -0.1551 -0.0072 -0.2714
 1282CHOL    R314890   2.150   2.778   6.504 -0.0316 -0.2755 -0.1569
 1282CHOL    R414891   2.416   3.005   6.617 -0.1328 -0.1087 -0.2496
 1282CHOL    R514892   2.503   2.846   6.939 -0.0564  0.0585 -0.1861
 1282CHOL    R614893   2.426   2.766   6.485 -0.0259 -0.1579 -0.1545
 1282CHOL    C114894   2.336   2.931   6.181 -0.1045 -0.3192 -0.2200
 1282CHOL    C214895   2.255   2.907   5.752  0.1547 -0.0675 -0.2884
 1283CHOL   ROH14896  16.010  17.992   3.800 -0.1225 -0.1811 -0.1107
 1283CHOL    R114897  16.093  17.571   3.839  0.0375 -0.1419 -0.0229
 1283CHOL    R214898  16.025  17.801   4.091 -0.0802 -0.1208 -0.0732
 1283CHOL    R314899  16.073  17.253   4.125  0.1295 -0.0969  0.0340
 1283CHOL    R414900  15.958  17.566   4.282 -0.0098 -0.1121 -0.0370
 1283CHOL    R514901  15.806  17.731   3.987 -0.0420 -0.2258 -0.0849
 1283CHOL    R614902  15.828  17.331   4.228  0.0874 -0.1729 -0.0079
 1283CHOL    C114903  15.985  17.181   4.512  0.1148 -0.0587  0.0379
 1283CHOL    C214904  15.897  16.783   4.652 -0.1515 -0.0425  0.0832
 1284CHOL   ROH14905  23.023   7.909   7.153 -0.0124  0.2915  0.1447
 1284CHOL    R114906  22.816   8.012   6.788 -0.0268  0.0441  0.0810
 1284CHOL    R214907  23.154   7.940   6.831  0.0007  0.2027  0.1413
 1284CHOL    R314908  22.871   8.012   6.364  0.0071 -0.1220  0.0848
 1284CHOL    R414909  23.177   7.887   6.526  0.0467  0.0765  0.1661
 1284CHOL    R514910  23.028   7.722   6.822  0.0917  0.1458  0.2279
 1284CHOL    R614911  22.999   7.767   6.358  0.1096 -0.0727  0.2045
 1284CHOL    C114912  23.148   7.937   6.081  0.0613 -0.1337  0.1407
 1284CHOL    C214913  23.079   8.054   5.689 -0.1479 -0.0140  0.0726
 1285CHOL   ROH14914   1.379  26.170   5.751 -0.1887  0.2655 -0.1370
 1285CHOL    R114915   1.247  26.491   6.006 -0.3034  0.1014  0.0126
 1285CHOL    R214916   1.444  26.217   6.090 -0.1115  0.1894 -0.1410
 1285CHOL    R314917   1.322  26.661   6.392 -0.2856  0.0164  0.0468
 1285CHOL    R414918   1.539  26.367   6.344 -0.1230  0.1610 -0.1197
 1285CHOL    R514919   1.592  26.387   5.978 -0.2482  0.3171 -0.1303
 1285CHOL    R614920   1.597  26.632   6.376 -0.2718  0.1860 -0.0490
 1285CHOL    C114921   1.537  26.601   6.728 -0.1447  0.0310 -0.0400
 1285CHOL    C214922   1.462  26.725   7.156  0.0614 -0.0407  0.2665
 1286CHOL   ROH14923   3.212  19.435   7.083  0.0425  0.0840 -0.0481
 1286CHOL    R114924   3.028  19.322   6.710  0.0034 -0.0295  0.0052
 1286CHOL    R214925   3.325  19.496   6.759 -0.0071  0.0125 -0.0789
 1286CHOL    R314926   3.114  19.295   6.292 -0.0502 -0.1272  0.0003
 1286CHOL    R414927   3.409  19.427   6.468 -0.0393 -0.0530 -0.0727
 1286CHOL    R514928   3.372  19.250   6.792  0.0216  0.0256 -0.0226
 1286CHOL    R614929   3.370  19.196   6.328 -0.0355 -0.0928 -0.0088
 1286CHOL    C114930   3.401  19.378   6.022 -0.0947 -0.1673 -0.0598
 1286CHOL    C214931   3.305  19.531   5.633 -0.0206  0.1949 -0.0249
 1287CHOL   ROH14932  20.835   6.998   6.912  0.0168  0.0516  0.0693
 1287CHOL    R114933  20.976   6.828   6.541  0.0574 -0.0611  0.1357
 1287CHOL    R214934  20.858   7.150   6.599 -0.0042 -0.0608  0.0123
 1287CHOL    R314935  21.096   6.945   6.148  0.0453 -0.1858  0.0947
 1287CHOL    R414936  20.995   7.243   6.337 -0.0152 -0.1333 -0.0194
 1287CHOL    R514937  21.098   7.140   6.678 -0.0040  0.0131  0.0225
 1287CHOL    R614938  21.235   7.169   6.232  0.0013 -0.1281  0.0145
 1287CHOL    C114939  21.122   7.267   5.907 -0.0090 -0.2705 -0.0256
 1287CHOL    C214940  21.146   7.166   5.471 -0.0361  0.0370 -0.6023
 1288CHOL   ROH14941  12.674   6.504   7.191 -0.1873  0.1737 -0.1149
 1288CHOL    R114942  12.974   6.426   6.891  0.0250  0.2190  0.0825
 1288CHOL    R214943  12.664   6.579   6.851 -0.0159  0.0824 -0.1413
 1288CHOL    R314944  13.077   6.531   6.489  0.2215  0.1580  0.1156
 1288CHOL    R414945  12.763   6.700   6.583  0.0947  0.0542 -0.1138
 1288CHOL    R514946  12.825   6.750   6.944 -0.1411  0.1723 -0.0882
 1288CHOL    R614947  13.009   6.798   6.517  0.0945  0.1383  0.0082
 1288CHOL    C114948  12.940   6.739   6.172  0.3243  0.0211 -0.0197
 1288CHOL    C214949  13.063   6.706   5.753 -0.0744 -0.0441 -0.1608
 1289CHOL   ROH14950   8.055  12.128   6.312 -0.0309 -0.0152 -0.0785
 1289CHOL    R114951   8.074  12.303   5.918  0.0393  0.0886 -0.0297
 1289CHOL    R214952   8.273  12.050   6.051 -0.0157  0.0202 -0.0765
 1289CHOL    R314953   8.248  12.236   5.533  0.0693  0.1644 -0.0294
 1289CHOL    R414954   8.355  11.969   5.763  0.0017  0.0846 -0.0898
 1289CHOL    R514955   8.055  11.947   5.978 -0.0248  0.0751 -0.1278
 1289CHOL    R614956   8.205  11.963   5.536  0.0248  0.1705 -0.1079
 1289CHOL    C114957   8.503  11.990   5.339  0.0502  0.1756 -0.0688
 1289CHOL    C214958   8.320  11.884   4.967  0.4386 -0.0550  0.0796
 1290CHOL   ROH14959   8.376  15.350   7.073  0.1800 -0.1781  0.0098
 1290CHOL    R114960   8.204  15.198   6.708  0.1205 -0.0965  0.0035
 1290CHOL    R214961   8.460  15.431   6.745  0.0551 -0.0257  0.0139
 1290CHOL    R314962   8.277  15.187   6.286 -0.0017  0.0871 -0.0239
 1290CHOL    R414963   8.545  15.378   6.451 -0.0153  0.1132 -0.0321
 1290CHOL    R514964   8.559  15.201   6.776  0.1407 -0.0056 -0.1025
 1290CHOL    R614965   8.550  15.144   6.312  0.0206  0.1669 -0.1223
 1290CHOL    C114966   8.530  15.326   6.005 -0.1318  0.2770 -0.0482
 1290CHOL    C214967   8.521  15.264   5.547 -0.1017  0.0707 -0.2736
 1291CHOL   ROH14968  14.185   8.836   4.152 -0.1101  0.1311 -0.0476
 1291CHOL    R114969  14.457   8.965   4.461  0.0069  0.0621 -0.1206
 1291CHOL    R214970  14.188   8.745   4.489 -0.0812  0.1795 -0.0348
 1291CHOL    R314971  14.575   8.868   4.861  0.0456  0.0710 -0.1300
 1291CHOL    R414972  14.307   8.638   4.754 -0.0735  0.1679 -0.0429
 1291CHOL    R514973  14.383   8.618   4.392 -0.1541  0.0823 -0.0553
 1291CHOL    R614974  14.568   8.594   4.821 -0.0785  0.0672 -0.0886
 1291CHOL    C114975  14.484   8.622   5.167  0.0021  0.1543 -0.0756
 1291CHOL    C214976  14.549   8.701   5.581  0.0108 -0.0246  0.1727
 1292CHOL   ROH14977   9.236  22.842   7.278  0.0461 -0.0523 -0.0518
 1292CHOL    R114978   9.077  22.824   6.877 -0.0492  0.1405 -0.0235
 1292CHOL    R214979   9.378  22.964   6.984  0.0781 -0.1020 -0.0573
 1292CHOL    R314980   9.195  22.883   6.471 -0.0875  0.1286 -0.0365
 1292CHOL    R414981   9.481  22.954   6.692  0.0119 -0.1246 -0.0801
 1292CHOL    R514982   9.410  22.714   6.965 -0.1111 -0.1241 -0.1109
 1292CHOL    R614983   9.443  22.762   6.501 -0.1696 -0.0617 -0.1088
 1292CHOL    C114984   9.508  23.004   6.246 -0.0411 -0.0611 -0.0762
 1292CHOL    C214985   9.390  23.237   5.908  0.0254  0.0177 -0.1356
 1293CHOL   ROH14986  16.114   0.570   7.517 -0.0738  0.3212 -0.0335
 1293CHOL    R114987  15.932   0.395   7.168  0.0824  0.1437 -0.0280
 1293CHOL    R214988  16.169   0.649   7.182 -0.0650  0.2835 -0.0410
 1293CHOL    R314989  15.976   0.379   6.743  0.1605  0.0813 -0.0177
 1293CHOL    R414990  16.237   0.597   6.884  0.0134  0.2609 -0.0193
 1293CHOL    R514991  16.289   0.429   7.210  0.0574  0.3572  0.0237
 1293CHOL    R614992  16.252   0.360   6.749  0.1714  0.2408  0.0316
 1293CHOL    C114993  16.196   0.533   6.441  0.1218  0.1456 -0.0133
 1293CHOL    C214994  16.174   0.431   5.983  0.2284  0.0140  0.0920
 1294CHOL   ROH14995   6.669  13.638   6.804  0.2906 -0.1510  0.0231
 1294CHOL    R114996   6.617  13.529   6.390 -0.0121  0.0425  0.0075
 1294CHOL    R214997   6.749  13.823   6.520  0.3142 -0.1188  0.0507
 1294CHOL    R314998   6.734  13.651   5.997 -0.0985  0.0794 -0.0071
 1294CHOL    R414999   6.880  13.881   6.245  0.2299 -0.1361  0.0067
 1294CHOL    R515000   6.929  13.647   6.527  0.1635 -0.2831 -0.1022
 1294CHOL    R615001   6.996  13.708   6.068 -0.0099 -0.1776 -0.1142
 1294CHOL    C115002   6.937  13.940   5.803  0.0632 -0.0285 -0.0014
 1294CHOL    C215003   6.867  13.911   5.354  0.0727  0.0176  0.2622
 1295CHOL   ROH15004   5.097  18.830   7.001 -0.4372 -0.0543 -0.0563
 1295CHOL    R115005   5.125  18.959   6.590 -0.1000 -0.0673 -0.0399
 1295CHOL    R215006   5.170  18.639   6.719 -0.2676 -0.0753  0.0007
 1295CHOL    R315007   5.144  18.801   6.193  0.1629 -0.0783 -0.0250
 1295CHOL    R415008   5.128  18.523   6.435 -0.0800 -0.0708 -0.0300
 1295CHOL    R515009   4.922  18.681   6.699 -0.2444 -0.0203 -0.1863
 1295CHOL    R615010   4.955  18.603   6.239  0.0838 -0.0357 -0.1623
 1295CHOL    C115011   5.166  18.452   5.993  0.2362 -0.0867 -0.0027
 1295CHOL    C215012   5.266  18.370   5.581  0.2128  0.2416 -0.0141
 1296CHOL   ROH15013   0.931  15.509   7.377  0.0583  0.0041 -0.0050
 1296CHOL    R115014   0.857  15.614   6.965  0.0704 -0.0328 -0.0166
 1296CHOL    R215015   1.103  15.403   7.093  0.0529 -0.0386  0.0077
 1296CHOL    R315016   0.962  15.494   6.568  0.0650 -0.0822 -0.0032
 1296CHOL    R415017   1.138  15.280   6.811  0.0461 -0.0707  0.0208
 1296CHOL    R515018   0.887  15.274   7.082  0.0429 -0.0230  0.0190
 1296CHOL    R615019   0.949  15.223   6.622  0.0435 -0.0756  0.0248
 1296CHOL    C115020   1.200  15.238   6.367  0.0472 -0.1214  0.0257
 1296CHOL    C215021   0.919  15.048   6.101 -0.0023  0.3933 -0.0922
 1297CHOL   ROH15022  15.192  10.011   3.792  0.0608  0.0127 -0.0145
 1297CHOL    R115023  15.037  10.254   4.113 -0.1350 -0.0956 -0.0259
 1297CHOL    R215024  15.211   9.953   4.135  0.1594  0.0719 -0.0094
 1297CHOL    R315025  15.063  10.299   4.537 -0.1256 -0.0183 -0.0346
 1297CHOL    R415026  15.274  10.017   4.432  0.1355  0.1701 -0.0250
 1297CHOL    R515027  15.379  10.138   4.098 -0.0217  0.2310 -0.0529
 1297CHOL    R615028  15.336  10.256   4.548 -0.0802  0.2461 -0.0624
 1297CHOL    C115029  15.226  10.129   4.864  0.0800  0.1782 -0.0332
 1297CHOL    C215030  15.030  10.170   5.239  0.3470  0.3925  0.1060
 1298CHOL   ROH15031   4.619  26.569   4.340 -0.0597  0.1192 -0.1215
 1298CHOL    R115032   4.918  26.523   4.648 -0.0617 -0.0559 -0.1449
 1298CHOL    R215033   4.618  26.698   4.664  0.0461  0.1299 -0.1248
 1298CHOL    R315034   4.974  26.582   5.068  0.0097 -0.0782 -0.1510
 1298CHOL    R415035   4.635  26.691   4.973  0.0673  0.1282 -0.1260
 1298CHOL    R515036   4.567  26.453   4.698 -0.1020  0.1610 -0.1139
 1298CHOL    R615037   4.722  26.491   5.137 -0.0420  0.0783 -0.1277
 1298CHOL    C115038   4.789  26.731   5.394  0.1272  0.0455 -0.1398
 1298CHOL    C215039   4.973  26.905   5.756 -0.1611 -0.1353 -0.0705
 1299CHOL   ROH15040  23.348   8.036   3.892 -0.0240  0.0101 -0.0163
 1299CHOL    R115041  23.160   8.333   4.142 -0.1034 -0.0295 -0.0288
 1299CHOL    R215042  23.264   8.013   4.229  0.0184  0.0160 -0.0053
 1299CHOL    R315043  23.081   8.418   4.554 -0.0917 -0.0141 -0.0297
 1299CHOL    R415044  23.258   8.096   4.528  0.0191  0.0451 -0.0134
 1299CHOL    R515045  23.467   8.163   4.230 -0.0343  0.0875 -0.0416
 1299CHOL    R615046  23.329   8.333   4.643 -0.0526  0.0825 -0.0456
 1299CHOL    C115047  23.119   8.260   4.922  0.0014  0.0379 -0.0167
 1299CHOL    C215048  22.865   8.389   5.254 -0.1301  0.2378  0.1426
 1300CHOL   ROH15049  10.005  25.747   6.993 -0.0791  0.2229  0.1031
 1300CHOL    R115050  10.104  25.571   6.612 -0.0582  0.1026  0.1635
 1300CHOL    R215051   9.805  25.720   6.709 -0.0792  0.0924  0.1150
 1300CHOL    R315052   9.961  25.549   6.210 -0.0606 -0.0611  0.1728
 1300CHOL    R415053   9.729  25.752   6.410 -0.0881 -0.0246  0.1044
 1300CHOL    R515054   9.967  25.904   6.649 -0.1074  0.0958  0.0478
 1300CHOL    R615055   9.887  25.815   6.197 -0.1005 -0.0763  0.0795
 1300CHOL    C115056   9.651  25.660   5.977 -0.0806 -0.1895  0.1372
 1300CHOL    C215057   9.399  25.384   5.770  0.0951  0.1497 -0.0651
 1301CHOL   ROH15058  23.859  13.939   7.155 -0.1698  0.1218 -0.0408
 1301CHOL    R115059  24.004  13.967   6.750 -0.0150  0.1889  0.0182
 1301CHOL    R215060  23.674  13.955   6.860 -0.0564  0.0907 -0.1141
 1301CHOL    R315061  23.867  14.051   6.353  0.1200  0.1779 -0.0314
 1301CHOL    R415062  23.583  14.068   6.587  0.0212  0.0840 -0.1432
 1301CHOL    R515063  23.757  14.191   6.889 -0.1329  0.1118 -0.0645
 1301CHOL    R615064  23.701  14.259   6.430  0.0317  0.1272 -0.0832
 1301CHOL    C115065  23.531  14.127   6.144  0.1817  0.0995 -0.1606
 1301CHOL    C215066  23.475  14.028   5.701  0.0965  0.0143 -0.2597
 1302CHOL   ROH15067  26.797  27.213   7.337 -0.1030 -0.0787 -0.0192
 1302CHOL    R115068  26.629  27.094   6.958 -0.0063  0.0680 -0.1090
 1302CHOL    R215069  26.927  27.263   7.017 -0.0251  0.0527  0.0323
 1302CHOL    R315070  26.734  27.055   6.545  0.0967  0.2356 -0.0996
 1302CHOL    R415071  27.023  27.185   6.733  0.0472  0.1688  0.0240
 1302CHOL    R515072  26.967  27.017   7.058 -0.0290  0.0370 -0.0561
 1302CHOL    R615073  26.986  26.951   6.596  0.0871  0.2220 -0.0787
 1302CHOL    C115074  27.037  27.125   6.288  0.1588  0.3469  0.0027
 1302CHOL    C215075  27.030  27.222   5.873 -0.0579 -0.0595  0.1454
 1303CHOL   ROH15076   5.891  24.147   7.772 -0.1044  0.2470  0.1874
 1303CHOL    R115077   5.582  23.955   7.540 -0.0148  0.1899  0.1149
 1303CHOL    R215078   5.819  24.186   7.433  0.0521  0.1337  0.1405
 1303CHOL    R315079   5.463  23.890   7.135  0.1638  0.0569  0.0825
 1303CHOL    R415080   5.768  24.096   7.141  0.1775  0.0349  0.1480
 1303CHOL    R515081   5.930  23.959   7.444  0.0297  0.1284  0.2705
 1303CHOL    R615082   5.720  23.846   7.042  0.2028  0.0039  0.2141
 1303CHOL    C115083   5.561  23.990   6.756  0.3430 -0.0836  0.0903
 1303CHOL    C215084   5.338  23.820   6.434  0.2695  0.0987  0.0197
 1304CHOL   ROH15085  10.615  22.178   7.041 -0.1081  0.2719  0.0841
 1304CHOL    R115086  10.714  21.881   6.745 -0.2005  0.1330  0.1914
 1304CHOL    R215087  10.593  22.203   6.694 -0.0152  0.1857  0.0716
 1304CHOL    R315088  10.779  21.840   6.324 -0.1258 -0.0215  0.2172
 1304CHOL    R415089  10.691  22.189   6.400  0.0452  0.0490  0.0974
 1304CHOL    R515090  10.841  22.219   6.738 -0.0156  0.0638  0.1231
 1304CHOL    R615091  10.919  22.077   6.299  0.0088 -0.1035  0.1808
 1304CHOL    C115092  10.761  22.048   5.979  0.0660 -0.1090  0.1531
 1304CHOL    C215093  10.943  21.870   5.619 -0.2494 -0.2298  0.3459
 1305CHOL   ROH15094   8.479  17.599   7.130 -0.0777  0.0521  0.0703
 1305CHOL    R115095   8.633  17.752   6.758 -0.0079 -0.0886  0.0408
 1305CHOL    R215096   8.450  17.461   6.811 -0.0350 -0.0584  0.1138
 1305CHOL    R315097   8.598  17.694   6.335  0.0566 -0.2348  0.0548
 1305CHOL    R415098   8.381  17.453   6.509  0.0133 -0.1601  0.1050
 1305CHOL    R515099   8.289  17.654   6.806 -0.0219 -0.0498  0.0197
 1305CHOL    R615100   8.324  17.659   6.340  0.0537 -0.2157  0.0230
 1305CHOL    C115101   8.422  17.457   6.062  0.0858 -0.3200  0.1095
 1305CHOL    C215102   8.575  17.257   5.694  0.0558  0.2896 -0.1454
 1306CHOL   ROH15103   9.882   2.927   7.030 -0.1923 -0.0619  0.1163
 1306CHOL    R115104  10.014   2.750   6.659  0.0096  0.0941  0.1117
 1306CHOL    R215105   9.695   2.863   6.742 -0.1044 -0.2016  0.0893
 1306CHOL    R315106   9.886   2.693   6.255  0.1044  0.0204  0.0918
 1306CHOL    R415107   9.624   2.872   6.441 -0.0803 -0.2346  0.0825
 1306CHOL    R515108   9.835   3.063   6.678 -0.2771 -0.0670  0.1256
 1306CHOL    R615109   9.779   2.947   6.229 -0.1231 -0.0718  0.1071
 1306CHOL    C115110   9.571   2.754   6.010  0.0734 -0.2387  0.0642
 1306CHOL    C215111   9.441   2.562   5.663 -0.0481  0.1214 -0.1628
 1307CHOL   ROH15112   1.225  23.029   7.106  0.0428  0.1780  0.0549
 1307CHOL    R115113   1.472  23.037   6.752  0.0324 -0.0169  0.0421
 1307CHOL    R215114   1.134  22.956   6.777  0.0263  0.0238  0.0928
 1307CHOL    R315115   1.441  23.028   6.325  0.0182 -0.2240  0.0463
 1307CHOL    R415116   1.104  23.005   6.472  0.0208 -0.1232  0.0691
 1307CHOL    R515117   1.155  23.208   6.778  0.0477  0.0233 -0.0315
 1307CHOL    R615118   1.221  23.195   6.315  0.0321 -0.2099 -0.0287
 1307CHOL    C115119   1.172  22.987   6.028  0.0053 -0.3474  0.0744
 1307CHOL    C215120   1.321  22.949   5.626  0.0579 -0.1519  0.1946
 1308CHOL   ROH15121   0.361   6.515   4.091  0.1789  0.1740 -0.0645
 1308CHOL    R115122   0.084   6.684   4.375  0.0490 -0.0794 -0.0373
 1308CHOL    R215123   0.364   6.488   4.439  0.2112  0.1382 -0.0675
 1308CHOL    R315124   0.042   6.757   4.794  0.0022 -0.1589 -0.0280
 1308CHOL    R415125   0.362   6.587   4.732  0.1398  0.1052 -0.0566
 1308CHOL    R515126   0.442   6.724   4.398  0.0199  0.2074 -0.0441
 1308CHOL    R615127   0.305   6.835   4.831 -0.0578  0.0499 -0.0277
 1308CHOL    C115128   0.225   6.690   5.147  0.0681 -0.0505 -0.0410
 1308CHOL    C215129   0.020   6.823   5.514 -0.0436  0.0457  0.0414
 1309CHOL   ROH15130  10.577  16.943   7.223  0.0576 -0.1896 -0.0287
 1309CHOL    R115131  10.678  16.816   6.823  0.0673 -0.1031 -0.0537
 1309CHOL    R215132  10.444  17.055   6.921  0.0426 -0.1466 -0.0062
 1309CHOL    R315133  10.622  16.931   6.415  0.0511 -0.0319 -0.0316
 1309CHOL    R415134  10.448  17.171   6.634  0.0275 -0.0918  0.0155
 1309CHOL    R515135  10.672  17.162   6.928  0.0312 -0.1232  0.0118
 1309CHOL    R615136  10.658  17.201   6.462  0.0226 -0.0367  0.0192
 1309CHOL    C115137  10.431  17.202   6.186  0.0198 -0.0088  0.0215
 1309CHOL    C215138  10.316  17.296   5.784  0.0382 -0.0003  0.0621
 1310CHOL   ROH15139   1.728   5.478   7.601 -0.2210 -0.0607 -0.0340
 1310CHOL    R115140   1.398   5.421   7.329 -0.1781  0.0074 -0.1007
 1310CHOL    R215141   1.708   5.566   7.264 -0.1411 -0.0410 -0.0339
 1310CHOL    R315142   1.306   5.434   6.911 -0.0952  0.0429 -0.1181
 1310CHOL    R415143   1.660   5.523   6.961 -0.0896 -0.0184 -0.0453
 1310CHOL    R515144   1.736   5.315   7.257 -0.1817 -0.0455 -0.0403
 1310CHOL    R615145   1.542   5.313   6.832 -0.0999  0.0074 -0.0782
 1310CHOL    C115146   1.469   5.526   6.554 -0.0107  0.0330 -0.0823
 1310CHOL    C215147   1.166   5.609   6.259 -0.0164  0.3033  0.1100
 1311CHOL   ROH15148   0.630  24.748   7.364 -0.1197 -0.0638 -0.1121
 1311CHOL    R115149   0.464  24.835   6.975 -0.1002  0.0290 -0.0998
 1311CHOL    R215150   0.795  24.864   7.080 -0.0848 -0.1072 -0.1095
 1311CHOL    R315151   0.586  24.914   6.573 -0.0842  0.0113 -0.0984
 1311CHOL    R415152   0.885  24.866   6.783 -0.0949 -0.1201 -0.1126
 1311CHOL    R515153   0.751  24.621   7.027 -0.1811 -0.0864 -0.1258
 1311CHOL    R615154   0.787  24.723   6.572 -0.1581 -0.0667 -0.1197
 1311CHOL    C115155   0.916  24.969   6.347 -0.0706 -0.0999 -0.1061
 1311CHOL    C215156   0.858  25.054   5.910 -0.1317 -0.0480 -0.0890
 1312CHOL   ROH15157   8.467  14.491   3.704  0.1028  0.1828  0.0290
 1312CHOL    R115158   8.673  14.122   3.790 -0.1922 -0.0245 -0.1345
 1312CHOL    R215159   8.490  14.322   4.009  0.1495  0.1444  0.0043
 1312CHOL    R315160   8.704  13.822   4.094 -0.2729 -0.0715 -0.1723
 1312CHOL    R415161   8.468  14.083   4.204  0.0517  0.1544  0.0060
 1312CHOL    R515162   8.327  14.182   3.876 -0.0797  0.3070  0.1074
 1312CHOL    R615163   8.433  13.818   4.149 -0.2432  0.1886  0.0144
 1312CHOL    C115164   8.576  13.734   4.466 -0.1037  0.0344 -0.0877
 1312CHOL    C215165   8.474  13.380   4.732 -0.0104 -0.2549  0.1946
 1313CHOL   ROH15166   0.019  12.080   3.921 -0.1662  0.0204  0.2239
 1313CHOL    R115167   0.004  11.746   4.194 -0.1491 -0.0326  0.1601
 1313CHOL    R215168   0.069  12.080   4.266 -0.1046 -0.0531  0.2152
 1313CHOL    R315169  -0.012  11.659   4.612 -0.0827 -0.1143  0.1459
 1313CHOL    R415170   0.002  12.024   4.564 -0.0568 -0.1061  0.2161
 1313CHOL    R515171  -0.181  12.052   4.243 -0.1113 -0.0247  0.2541
 1313CHOL    R615172  -0.191  11.862   4.671 -0.0529 -0.1090  0.2183
 1313CHOL    C115173  -0.002  11.838   4.973 -0.0012 -0.1873  0.1800
 1313CHOL    C215174   0.227  11.479   5.131  0.2681  0.1695  0.2798
 1314CHOL   ROH15175  26.995  26.283   3.708 -0.0298  0.1602 -0.0833
 1314CHOL    R115176  26.674  26.294   3.996  0.0315 -0.0827 -0.0035
 1314CHOL    R215177  27.013  26.355   4.049  0.0123  0.0892 -0.0704
 1314CHOL    R315178  26.590  26.425   4.395  0.0543 -0.2225  0.0479
 1314CHOL    R415179  26.942  26.499   4.314 -0.0035 -0.0118 -0.0192
 1314CHOL    R515180  26.911  26.563   3.951 -0.1250  0.0578  0.0029
 1314CHOL    R615181  26.731  26.663   4.371 -0.0802 -0.1394  0.0698
 1314CHOL    C115182  26.767  26.588   4.718  0.0431 -0.2025  0.0440
 1314CHOL    C215183  26.601  26.681   5.128  0.0002  0.0524  0.0467
 1315CHOL   ROH15184   2.935   2.600   3.825  0.0008 -0.0146 -0.0783
 1315CHOL    R115185   2.908   2.660   4.251 -0.0777 -0.1731 -0.0601
 1315CHOL    R215186   3.193   2.605   4.060 -0.0203  0.0987 -0.0571
 1315CHOL    R315187   3.154   2.743   4.591 -0.1643 -0.1024 -0.0143
 1315CHOL    R415188   3.366   2.718   4.291 -0.1209  0.1509 -0.0070
 1315CHOL    R515189   3.130   2.848   4.037 -0.1975  0.0611  0.0176
 1315CHOL    R615190   3.314   2.927   4.459 -0.2878  0.0593  0.0575
 1315CHOL    C115191   3.540   2.788   4.699 -0.2038  0.1465  0.0293
 1315CHOL    C215192   3.644   2.679   5.126 -0.0929 -0.0973 -0.0353
 1316CHOL   ROH15193   8.126  20.589   7.206 -0.0175 -0.0839  0.0073
 1316CHOL    R115194   8.317  20.571   6.820 -0.0238  0.1199 -0.0066
 1316CHOL    R215195   8.000  20.459   6.908  0.0657 -0.1380 -0.0044
 1316CHOL    R315196   8.228  20.495   6.409  0.0112  0.1112 -0.0125
 1316CHOL    R415197   7.921  20.457   6.608  0.0496 -0.1547 -0.0001
 1316CHOL    R515198   7.987  20.708   6.873 -0.1285 -0.1410  0.0325
 1316CHOL    R615199   7.989  20.633   6.411 -0.0968 -0.0730  0.0215
 1316CHOL    C115200   7.928  20.381   6.166  0.0837 -0.0859 -0.0117
 1316CHOL    C215201   7.818  20.282   5.751  0.0726 -0.0997  0.1809
 1317CHOL   ROH15202   1.073  20.468   7.441  0.3969  0.0015 -0.1898
 1317CHOL    R115203   0.915  20.355   7.056  0.2535 -0.0154 -0.1265
 1317CHOL    R215204   1.017  20.670   7.163  0.2095  0.0065 -0.1495
 1317CHOL    R315205   0.872  20.505   6.658  0.0268  0.0028 -0.0966
 1317CHOL    R415206   1.037  20.760   6.867  0.0477  0.0356 -0.1528
 1317CHOL    R515207   1.223  20.539   7.099  0.2198  0.0720 -0.2537
 1317CHOL    R615208   1.124  20.619   6.649 -0.0100  0.0778 -0.2036
 1317CHOL    C115209   0.936  20.836   6.435 -0.1723  0.0390 -0.1018
 1317CHOL    C215210   0.838  20.899   6.033 -0.2476 -0.3620 -0.0675
 1318CHOL   ROH15211  24.174   1.150   3.928  0.2298  0.1581 -0.0518
 1318CHOL    R115212  24.471   0.912   4.132  0.1000  0.0812  0.0491
 1318CHOL    R215213  24.299   1.191   4.251  0.1467  0.1385 -0.0168
 1318CHOL    R315214  24.632   0.847   4.522 -0.0344  0.0544  0.1008
 1318CHOL    R415215  24.374   1.108   4.540  0.0372  0.1319  0.0101
 1318CHOL    R515216  24.147   0.991   4.272  0.0812  0.1844 -0.0505
 1318CHOL    R615217  24.388   0.859   4.651 -0.0690  0.1336  0.0280
 1318CHOL    C115218  24.611   0.984   4.901 -0.1058  0.0813  0.0871
 1318CHOL    C215219  24.944   0.947   5.187 -0.1072  0.2048 -0.1160
 1319CHOL   ROH15220   1.226  21.696   7.007  0.1053  0.1531 -0.0089
 1319CHOL    R115221   1.518  21.564   6.718 -0.0775 -0.0817 -0.0896
 1319CHOL    R215222   1.189  21.663   6.661 -0.0172  0.1771  0.0013
 1319CHOL    R315223   1.586  21.552   6.296 -0.2041 -0.1411 -0.1089
 1319CHOL    R415224   1.258  21.706   6.362 -0.0664  0.1190 -0.0186
 1319CHOL    R515225   1.331  21.871   6.686  0.1543  0.0673 -0.0401
 1319CHOL    R615226   1.486  21.806   6.250 -0.0176 -0.0616 -0.0834
 1319CHOL    C115227   1.408  21.637   5.944 -0.2363 -0.0051 -0.0601
 1319CHOL    C215228   1.440  21.482   5.555 -0.0406 -0.1662 -0.1771
 1320CHOL   ROH15229   3.774  17.853   5.580  0.1432  0.0847 -0.0494
 1320CHOL    R115230   3.774  17.478   5.367  0.2803  0.0656 -0.0166
 1320CHOL    R215231   3.775  17.800   5.236 -0.0512  0.0577 -0.0472
 1320CHOL    R315232   3.837  17.319   4.975  0.1341  0.0804 -0.0466
 1320CHOL    R415233   3.874  17.685   4.965 -0.1472  0.1101 -0.1052
 1320CHOL    R515234   4.011  17.743   5.305  0.0409  0.2405 -0.2015
 1320CHOL    R615235   4.052  17.484   4.918 -0.0259  0.2388 -0.2076
 1320CHOL    C115236   3.908  17.433   4.595 -0.2092  0.1040 -0.1067
 1320CHOL    C215237   3.967  17.246   4.192  0.2992  0.0148  0.0193
 1321CHOL   ROH15238  19.534  16.397   4.014  0.1457  0.0903 -0.0282
 1321CHOL    R115239  19.927  16.286   4.154  0.1393  0.0850 -0.0138
 1321CHOL    R215240  19.662  16.418   4.337  0.1089  0.0174 -0.0085
 1321CHOL    R315241  20.143  16.218   4.516  0.1052  0.0088 -0.0076
 1321CHOL    R415242  19.798  16.317   4.597  0.0885 -0.0387 -0.0194
 1321CHOL    R515243  19.621  16.171   4.307  0.1313  0.0216 -0.0765
 1321CHOL    R615244  19.935  16.086   4.642  0.1016 -0.0400 -0.0640
 1321CHOL    C115245  20.104  16.240   4.917  0.0598 -0.0970 -0.0059
 1321CHOL    C215246  20.493  16.417   4.958  0.1375  0.2322 -0.0413
 1322CHOL   ROH15247  23.865   6.500   7.227  0.0847  0.0791 -0.0673
 1322CHOL    R115248  23.814   6.340   6.829  0.1441 -0.0404 -0.0272
 1322CHOL    R215249  23.925   6.657   6.921  0.0019  0.0332 -0.1071
 1322CHOL    R315250  23.914   6.424   6.422  0.0912 -0.0922 -0.0510
 1322CHOL    R415251  24.045   6.693   6.638 -0.0242  0.0205 -0.1198
 1322CHOL    R515252  24.119   6.497   6.943  0.0767  0.1273 -0.0750
 1322CHOL    R615253  24.171   6.510   6.479  0.0547  0.0398 -0.0800
 1322CHOL    C115254  24.089   6.704   6.191 -0.0450 -0.0667 -0.1243
 1322CHOL    C215255  23.984   6.672   5.763 -0.1498  0.3029 -0.2419
 1323CHOL   ROH15256   7.795  23.628   4.198  0.1203 -0.0077 -0.1163
 1323CHOL    R115257   8.155  23.452   4.358  0.0901  0.0257 -0.0108
 1323CHOL    R215258   7.939  23.677   4.512  0.0626  0.0612 -0.1004
 1323CHOL    R315259   8.364  23.403   4.728  0.0216  0.1065  0.0391
 1323CHOL    R415260   8.057  23.597   4.787  0.0115  0.1212 -0.0606
 1323CHOL    R515261   7.837  23.447   4.530  0.0582  0.0655 -0.0681
 1323CHOL    R615262   8.136  23.352   4.877 -0.0060  0.1407  0.0084
 1323CHOL    C115263   8.349  23.509   5.117 -0.0497  0.1928  0.0132
 1323CHOL    C215264   8.624  23.552   5.433  0.1298 -0.0005 -0.0134
 1324CHOL   ROH15265   5.818  21.148   4.147 -0.0456  0.2439  0.0001
 1324CHOL    R115266   5.958  21.389   4.476 -0.1152  0.2347  0.0367
 1324CHOL    R215267   5.710  21.145   4.479 -0.0077  0.1240  0.0118
 1324CHOL    R315268   5.937  21.412   4.903 -0.0785  0.1326  0.0445
 1324CHOL    R415269   5.736  21.126   4.787  0.0347  0.0690  0.0049
 1324CHOL    R515270   5.933  21.028   4.489  0.0453  0.2202 -0.0386
 1324CHOL    R615271   5.961  21.139   4.942  0.0465  0.1339 -0.0173
 1324CHOL    C115272   5.760  21.238   5.221  0.0331 -0.0149  0.0269
 1324CHOL    C215273   5.671  21.529   5.518  0.0514  0.0653  0.0976
 1325CHOL   ROH15274  21.084   4.187   4.091 -0.2628  0.1817  0.0971
 1325CHOL    R115275  21.297   4.004   4.418 -0.2431 -0.0843 -0.0612
 1325CHOL    R215276  20.962   4.094   4.404 -0.1835  0.1811  0.1280
 1325CHOL    R315277  21.228   3.807   4.791 -0.2151 -0.1445 -0.0877
 1325CHOL    R415278  20.905   3.905   4.643 -0.2135  0.1510  0.0973
 1325CHOL    R515279  20.989   3.873   4.284 -0.4118  0.1947  0.0463
 1325CHOL    R615280  21.012   3.660   4.699 -0.3749  0.0496 -0.0297
 1325CHOL    C115281  20.932   3.705   5.045 -0.1732  0.0079  0.0239
 1325CHOL    C215282  20.904   3.718   5.508  0.3770  0.0936  0.0389
 1326CHOL   ROH15283  21.179  25.228   6.860 -0.0265 -0.1157 -0.0514
 1326CHOL    R115284  21.053  25.277   6.451  0.0119 -0.0613 -0.0566
 1326CHOL    R215285  21.330  25.105   6.572  0.0082 -0.0654 -0.0548
 1326CHOL    R315286  21.130  25.121   6.059  0.0582  0.0005 -0.0723
 1326CHOL    R415287  21.349  24.953   6.302  0.0425 -0.0246 -0.0755
 1326CHOL    R515288  21.128  24.956   6.599  0.0129 -0.0796 -0.0967
 1326CHOL    R615289  21.148  24.858   6.143  0.0630 -0.0111 -0.1094
 1326CHOL    C115290  21.370  24.865   5.862  0.0905  0.0418 -0.0866
 1326CHOL    C215291  21.406  24.880   5.427  0.3701  0.2491  0.2349
 1327CHOL   ROH15292  11.695  20.138   5.190  0.1040  0.0240 -0.0936
 1327CHOL    R115293  11.791  19.871   5.515  0.1984  0.0018 -0.1393
 1327CHOL    R215294  11.787  20.219   5.516 -0.0242  0.0009 -0.0509
 1327CHOL    R315295  11.848  19.872   5.939  0.0987 -0.0687 -0.1253
 1327CHOL    R415296  11.774  20.214   5.826 -0.0939 -0.0863 -0.0549
 1327CHOL    R515297  11.549  20.139   5.541  0.0204 -0.1581 -0.1266
 1327CHOL    R615298  11.638  20.044   5.990 -0.0243 -0.2160 -0.1299
 1327CHOL    C115299  11.865  20.121   6.256 -0.1348 -0.1376 -0.0573
 1327CHOL    C215300  12.105  20.217   6.624 -0.0580 -0.3014  0.2315
 1328CHOL   ROH15301   6.693  25.530   6.985  0.1034 -0.1319 -0.0075
 1328CHOL    R115302   6.504  25.162   6.862  0.0691 -0.1315  0.0442
 1328CHOL    R215303   6.555  25.450   6.675  0.0279 -0.1352  0.0270
 1328CHOL    R315304   6.371  24.958   6.510 -0.0180 -0.1358  0.0795
 1328CHOL    R415305   6.511  25.285   6.416 -0.0363 -0.1394  0.0402
 1328CHOL    R515306   6.771  25.320   6.677  0.0269 -0.1382 -0.0226
 1328CHOL    R615307   6.590  25.031   6.358 -0.0536 -0.1412  0.0256
 1328CHOL    C115308   6.331  25.007   6.112 -0.1129 -0.1424  0.0879
 1328CHOL    C215309   6.150  24.858   5.735 -0.0369 -0.0501  0.0142
 1329CHOL   ROH15310  13.184   8.022   4.400 -0.0606  0.1654 -0.0177
 1329CHOL    R115311  13.486   7.980   4.704 -0.1165  0.1485  0.0357
 1329CHOL    R215312  13.156   7.871   4.713 -0.0955  0.0758 -0.0637
 1329CHOL    R315313  13.564   7.769   5.068 -0.1496  0.0677 -0.0038
 1329CHOL    R415314  13.230   7.677   4.943 -0.1038  0.0298 -0.0996
 1329CHOL    R515315  13.290   7.704   4.579 -0.0315  0.1398 -0.0801
 1329CHOL    R615316  13.457   7.530   4.979 -0.0799  0.0684 -0.0907
 1329CHOL    C115317  13.391   7.516   5.330 -0.1522 -0.0394 -0.1080
 1329CHOL    C215318  13.551   7.387   5.737  0.0486  0.0255 -0.0138
 1330CHOL   ROH15319  25.441  14.371   5.132  0.0424 -0.0736 -0.0914
 1330CHOL    R115320  25.805  14.319   5.356 -0.0640 -0.1293  0.0707
 1330CHOL    R215321  25.613  14.075   5.199  0.0642 -0.0787 -0.1690
 1330CHOL    R315322  26.109  14.027   5.434 -0.0483 -0.1147  0.0638
 1330CHOL    R415323  25.856  13.883   5.208  0.0966 -0.0370 -0.1514
 1330CHOL    R515324  25.756  14.188   5.023  0.1349  0.0490 -0.0318
 1330CHOL    R615325  26.121  13.938   5.172  0.1059  0.0356  0.0177
 1330CHOL    C115326  26.206  13.643   5.357  0.0651 -0.0538 -0.1043
 1330CHOL    C215327  26.413  13.386   5.646  0.0616 -0.0381 -0.1480
 1331CHOL   ROH15328   3.303  20.897   5.592 -0.0775  0.1411  0.1188
 1331CHOL    R115329   3.255  20.686   5.965 -0.1363  0.1675  0.1263
 1331CHOL    R215330   3.490  20.929   5.884 -0.0107  0.0352  0.0884
 1331CHOL    R315331   3.382  20.700   6.373 -0.0614  0.0953  0.1056
 1331CHOL    R415332   3.540  20.975   6.187  0.0648  0.0067  0.0804
 1331CHOL    R515333   3.273  21.046   5.940  0.0636  0.1584  0.1240
 1331CHOL    R615334   3.362  20.975   6.394  0.0979  0.1076  0.1095
 1331CHOL    C115335   3.628  20.902   6.621  0.0941 -0.0437  0.0661
 1331CHOL    C215336   3.629  20.825   7.067 -0.1949  0.0089 -0.1548
 1332CHOL   ROH15337   9.192  12.497   7.013  0.0865  0.0344  0.0104
 1332CHOL    R115338   9.160  12.771   6.681  0.0935  0.1089  0.0709
 1332CHOL    R215339   9.352  12.481   6.704  0.0721  0.0891  0.0001
 1332CHOL    R315340   9.258  12.802   6.266  0.0783  0.1914  0.0734
 1332CHOL    R415341   9.375  12.477   6.395  0.0587  0.1544 -0.0020
 1332CHOL    R515342   9.115  12.414   6.651  0.0645  0.1190 -0.0046
 1332CHOL    R615343   9.187  12.541   6.207  0.0556  0.2097  0.0196
 1332CHOL    C115344   9.448  12.605   5.970  0.0505  0.2408  0.0224
 1332CHOL    C215345   9.618  12.764   5.617  0.0843 -0.0761 -0.1935
 1333CHOL   ROH15346   9.686  11.199   4.055 -0.1407 -0.1029 -0.0188
 1333CHOL    R115347   9.571  11.373   4.432  0.0553 -0.0286  0.0078
 1333CHOL    R215348   9.681  11.049   4.370 -0.0976 -0.0787 -0.0066
 1333CHOL    R315349   9.591  11.298   4.852  0.1637 -0.0069  0.0067
 1333CHOL    R415350   9.746  11.018   4.671 -0.0106 -0.0838 -0.0256
 1333CHOL    R515351   9.884  11.200   4.379 -0.0322 -0.1605 -0.0839
 1333CHOL    R615352   9.850  11.201   4.846  0.1222 -0.1134 -0.0722
 1333CHOL    C115353   9.708  11.019   5.119  0.1378 -0.0360 -0.0123
 1333CHOL    C215354   9.729  11.002   5.558  0.0381 -0.0522  0.0105
 1334CHOL   ROH15355  26.163  27.188   7.217 -0.1486 -0.2227 -0.0354
 1334CHOL    R115356  25.906  27.228   6.873 -0.0463 -0.1684 -0.1060
 1334CHOL    R215357  26.254  27.240   6.884 -0.0460 -0.2498 -0.0122
 1334CHOL    R315358  25.921  27.229   6.445  0.0694 -0.1796 -0.1022
 1334CHOL    R415359  26.262  27.185   6.579  0.0236 -0.2572 -0.0093
 1334CHOL    R515360  26.184  26.997   6.889 -0.1043 -0.2334 -0.0265
 1334CHOL    R615361  26.104  27.021   6.429  0.0256 -0.2229 -0.0490
 1334CHOL    C115362  26.182  27.214   6.138  0.1497 -0.2463 -0.0317
 1334CHOL    C215363  26.160  27.230   5.702 -0.1313 -0.1951 -0.1903
 1335CHOL   ROH15364  14.048   7.826   3.940 -0.2864 -0.0613  0.0717
 1335CHOL    R115365  13.976   7.538   4.253 -0.0315 -0.3856 -0.1607
 1335CHOL    R215366  14.281   7.658   4.137 -0.1376  0.0790  0.0173
 1335CHOL    R315367  14.178   7.339   4.574  0.1161 -0.3762 -0.2467
 1335CHOL    R415368  14.415   7.559   4.399 -0.0960  0.0500 -0.0147
 1335CHOL    R515369  14.185   7.830   4.295 -0.3998 -0.1522  0.1172
 1335CHOL    R615370  14.319   7.563   4.654 -0.1822 -0.2560 -0.0386
 1335CHOL    C115371  14.542   7.297   4.741  0.1208 -0.0499 -0.1691
 1335CHOL    C215372  14.467   7.182   5.141  0.1054 -0.1670  0.1894
 1336CHOL   ROH15373   7.710  12.585   6.719  0.1635  0.0260  0.0257
 1336CHOL    R115374   7.834  12.823   6.381  0.1990 -0.0316 -0.0019
 1336CHOL    R215375   7.707  12.499   6.381  0.0950  0.0086  0.0305
 1336CHOL    R315376   7.811  12.830   5.954  0.1500 -0.0470  0.0005
 1336CHOL    R415377   7.641  12.529   6.080  0.0682  0.0138  0.0369
 1336CHOL    R515378   7.513  12.658   6.402  0.1486  0.0722  0.0456
 1336CHOL    R615379   7.547  12.746   5.944  0.1215  0.0369  0.0368
 1336CHOL    C115380   7.681  12.613   5.640  0.0423 -0.0223  0.0276
 1336CHOL    C215381   7.957  12.496   5.359  0.0276 -0.0922 -0.1275
 1337CHOL   ROH15382  22.329   5.119   7.368  0.1817  0.1211  0.1369
 1337CHOL    R115383  22.266   5.352   7.010  0.0379  0.0118  0.0896
 1337CHOL    R215384  22.432   5.048   7.042  0.1918  0.0999  0.1446
 1337CHOL    R315385  22.294   5.322   6.585  0.0202 -0.0685  0.0941
 1337CHOL    R415386  22.401   5.004   6.737  0.1899  0.0170  0.1565
 1337CHOL    R515387  22.184   5.002   7.037  0.2135 -0.0245  0.1736
 1337CHOL    R615388  22.191   5.065   6.573  0.1461 -0.1231  0.1587
 1337CHOL    C115389  22.412   5.070   6.292  0.1226 -0.0754  0.1408
 1337CHOL    C215390  22.413   5.249   5.876  0.1367 -0.2789  0.2796
 1338CHOL   ROH15391  12.232   0.405   4.225  0.1002 -0.0173  0.0925
 1338CHOL    R115392  12.052   0.206   4.562  0.0786 -0.0861  0.0405
 1338CHOL    R215393  12.269   0.478   4.564  0.0413 -0.0567  0.1074
 1338CHOL    R315394  11.988   0.256   4.982  0.0111 -0.1498  0.0380
 1338CHOL    R415395  12.177   0.544   4.853 -0.0094 -0.1069  0.1030
 1338CHOL    R515396  12.037   0.563   4.510  0.0373 -0.0813  0.0852
 1338CHOL    R615397  11.929   0.526   4.964 -0.0231 -0.1554  0.0649
 1338CHOL    C115398  12.076   0.502   5.288 -0.0667 -0.1777  0.0832
 1338CHOL    C215399  12.105   0.403   5.709  0.0087  0.0522 -0.3155
 1339CHOL   ROH15400   7.265   2.433   5.578  0.1529  0.1040  0.0896
 1339CHOL    R115401   7.239   2.326   5.161 -0.0211  0.0634  0.1100
 1339CHOL    R215402   7.487   2.242   5.389  0.0197 -0.0050  0.0411
 1339CHOL    R315403   7.414   2.060   4.875 -0.2142 -0.0393  0.0853
 1339CHOL    R415404   7.578   2.013   5.201 -0.1285 -0.0630  0.0393
 1339CHOL    R515405   7.292   2.086   5.426 -0.0297  0.0744  0.1218
 1339CHOL    R615406   7.426   1.845   5.048 -0.2424 -0.0234  0.1072
 1339CHOL    C115407   7.708   1.787   4.835 -0.3318 -0.1578  0.0241
 1339CHOL    C215408   7.762   1.635   4.450 -0.0370  0.1234  0.2734
 1340CHOL   ROH15409   5.952  14.276   6.649 -0.0631 -0.0073  0.0072
 1340CHOL    R115410   5.820  14.393   6.255 -0.0843 -0.0937 -0.0116
 1340CHOL    R215411   6.144  14.392   6.382 -0.0921  0.0496  0.0110
 1340CHOL    R315412   5.974  14.481   5.866 -0.0933 -0.0625 -0.0082
 1340CHOL    R415413   6.253  14.401   6.092 -0.0756  0.0704  0.0179
 1340CHOL    R515414   6.086  14.156   6.314  0.0092  0.0198  0.0263
 1340CHOL    R615415   6.160  14.276   5.868 -0.0091  0.0135  0.0216
 1340CHOL    C115416   6.321  14.522   5.665 -0.0956  0.0632  0.0126
 1340CHOL    C215417   6.307  14.618   5.233 -0.2387  0.2886  0.0059
 1341CHOL   ROH15418   7.529   6.495   6.883 -0.1383 -0.1946  0.0741
 1341CHOL    R115419   7.221   6.500   6.582 -0.0517 -0.0998 -0.0137
 1341CHOL    R215420   7.562   6.450   6.539 -0.0470 -0.1458  0.0762
 1341CHOL    R315421   7.156   6.397   6.172  0.0495 -0.0255 -0.0487
 1341CHOL    R415422   7.505   6.325   6.261  0.0129 -0.0935  0.0401
 1341CHOL    R515423   7.461   6.233   6.617 -0.1031 -0.1425  0.0134
 1341CHOL    R615424   7.301   6.162   6.184  0.0096 -0.0499 -0.0441
 1341CHOL    C115425   7.350   6.263   5.845  0.1223 -0.0042 -0.0146
 1341CHOL    C215426   7.133   6.387   5.480 -0.0437  0.2661 -0.0437
 1342CHOL   ROH15427   1.991   2.353   3.973  0.1146 -0.2773 -0.0375
 1342CHOL    R115428   2.284   2.351   4.289  0.0722 -0.2553  0.0021
 1342CHOL    R215429   1.938   2.326   4.316  0.0624 -0.1648 -0.0362
 1342CHOL    R315430   2.322   2.263   4.706 -0.0042 -0.1432  0.0330
 1342CHOL    R415431   1.973   2.210   4.602 -0.0032 -0.0903  0.0026
 1342CHOL    R515432   2.028   2.099   4.253  0.0169 -0.2051  0.0418
 1342CHOL    R615433   2.162   2.038   4.696 -0.0568 -0.1082  0.0779
 1342CHOL    C115434   2.104   2.157   5.028 -0.0725  0.0025  0.0357
 1342CHOL    C215435   2.339   2.095   5.385 -0.1726 -0.3274 -0.0051
 1343CHOL   ROH15436   2.015  19.135   4.592 -0.0100  0.0566  0.0160
 1343CHOL    R115437   2.200  19.523   4.633 -0.0310  0.0692 -0.0070
 1343CHOL    R215438   1.970  19.370   4.846 -0.0422  0.0800 -0.0113
 1343CHOL    R315439   2.255  19.835   4.921 -0.0695  0.1003 -0.0333
 1343CHOL    R415440   2.054  19.566   5.071 -0.0702  0.1062 -0.0237
 1343CHOL    R515441   2.198  19.274   4.895 -0.0420  0.0952  0.0177
 1343CHOL    R615442   2.301  19.663   5.133 -0.0798  0.1236 -0.0122
 1343CHOL    C115443   2.150  19.943   5.295 -0.1062  0.1330 -0.0531
 1343CHOL    C215444   2.379  20.307   5.424 -0.2579  0.1765 -0.1403
 1344CHOL   ROH15445  17.280  20.214   7.145  0.0489  0.2699  0.0463
 1344CHOL    R115446  17.195  20.092   6.740  0.1587  0.2001  0.0437
 1344CHOL    R215447  17.077  20.372   6.910 -0.0586  0.1160  0.0345
 1344CHOL    R315448  17.023  20.241   6.378  0.0640  0.0680  0.0335
 1344CHOL    R415449  17.003  20.501   6.638 -0.1420  0.0578  0.0293
 1344CHOL    R515450  17.310  20.423   6.829 -0.0914  0.2892  0.0451
 1344CHOL    R615451  17.136  20.492   6.401 -0.1236  0.1545  0.0359
 1344CHOL    C115452  16.831  20.563   6.228 -0.1695 -0.0746  0.0203
 1344CHOL    C215453  16.881  20.716   5.814  0.0754 -0.1406  0.0017
 1345CHOL   ROH15454  21.356  20.068   7.000 -0.2360  0.0562 -0.1009
 1345CHOL    R115455  21.510  20.094   6.598 -0.1215 -0.0244 -0.0627
 1345CHOL    R215456  21.241  19.906   6.713 -0.1772  0.0270 -0.1083
 1345CHOL    R315457  21.407  19.993   6.196 -0.0231 -0.0724 -0.0763
 1345CHOL    R415458  21.139  19.882   6.422 -0.0998 -0.0045 -0.1331
 1345CHOL    R515459  21.163  20.144   6.682 -0.1389  0.0321 -0.1662
 1345CHOL    R615460  21.141  20.067   6.221 -0.0212 -0.0350 -0.1608
 1345CHOL    C115461  21.124  19.804   5.980  0.0128 -0.0697 -0.1258
 1345CHOL    C215462  20.931  19.787   5.588 -0.2839 -0.1445  0.2536
 1346CHOL   ROH15463  20.024   4.626   6.731  0.0868 -0.0823 -0.0101
 1346CHOL    R115464  20.327   4.518   6.444  0.0464 -0.0623 -0.0605
 1346CHOL    R215465  19.983   4.542   6.395  0.0348 -0.1024  0.0012
 1346CHOL    R315466  20.382   4.465   6.023 -0.0245 -0.0760 -0.0681
 1346CHOL    R415467  20.032   4.558   6.089 -0.0229 -0.1113 -0.0086
 1346CHOL    R515468  20.079   4.775   6.385  0.0076 -0.0922 -0.0274
 1346CHOL    R615469  20.230   4.685   5.952 -0.0617 -0.0959 -0.0509
 1346CHOL    C115470  20.179   4.466   5.675 -0.0884 -0.1145 -0.0312
 1346CHOL    C215471  20.215   4.284   5.311  0.1117 -0.1428  0.1967
 1347CHOL   ROH15472  16.634  23.315   7.239  0.2302  0.2902  0.0230
 1347CHOL    R115473  16.454  23.265   6.850  0.0994 -0.0626  0.1244
 1347CHOL    R215474  16.789  23.319   6.927  0.0989  0.2027 -0.0446
 1347CHOL    R315475  16.561  23.194   6.442 -0.0234 -0.2406  0.1221
 1347CHOL    R415476  16.867  23.214   6.646  0.0504  0.0820 -0.0135
 1347CHOL    R515477  16.739  23.074   6.964  0.2719  0.1904  0.1255
 1347CHOL    R615478  16.758  23.009   6.502  0.1221 -0.0777  0.1552
 1347CHOL    C115479  16.882  23.156   6.200 -0.0977 -0.1783  0.0128
 1347CHOL    C215480  16.873  23.004   5.767  0.5591 -0.2717 -0.1489
 1348CHOL   ROH15481   7.035  12.536   4.506 -0.2333  0.2303 -0.0400
 1348CHOL    R115482   7.280  12.846   4.333  0.0186  0.0524 -0.0080
 1348CHOL    R215483   7.202  12.795   4.668 -0.1781  0.1892 -0.0309
 1348CHOL    R315484   7.560  13.149   4.445  0.1226 -0.0628  0.0452
 1348CHOL    R415485   7.443  12.974   4.747 -0.1228  0.0849  0.0384
 1348CHOL    R515486   7.388  12.636   4.606 -0.2294  0.0728  0.1085
 1348CHOL    R615487   7.690  12.992   4.632 -0.0540 -0.0784  0.1570
 1348CHOL    C115488   7.730  13.320   4.769  0.0494 -0.0588  0.0816
 1348CHOL    C215489   8.004  13.650   4.786 -0.1700  0.0991  0.0775
 1349CHOL   ROH15490   6.369  16.056   4.148  0.1347  0.1455  0.1157
 1349CHOL    R115491   6.369  16.241   4.538  0.1810  0.0770  0.1484
 1349CHOL    R215492   6.342  15.903   4.460  0.0875  0.0980  0.0883
 1349CHOL    R315493   6.404  16.142   4.952  0.1475 -0.0061  0.1316
 1349CHOL    R415494   6.422  15.834   4.752  0.0641  0.0241  0.0775
 1349CHOL    R515495   6.585  15.966   4.447  0.1056  0.0321  0.1032
 1349CHOL    R615496   6.605  15.955   4.914  0.0959 -0.0556  0.1017
 1349CHOL    C115497   6.434  15.826   5.201  0.0556 -0.0587  0.0764
 1349CHOL    C215498   6.314  15.762   5.613  0.1829 -0.1072  0.1315
 1350CHOL   ROH15499  13.336  14.396   7.200 -0.0723 -0.1353  0.0057
 1350CHOL    R115500  13.570  14.435   6.839 -0.0992 -0.2186 -0.0208
 1350CHOL    R215501  13.255  14.292   6.877 -0.1634 -0.0715  0.0077
 1350CHOL    R315502  13.533  14.400   6.414 -0.1699 -0.1678 -0.0190
 1350CHOL    R415503  13.210  14.319   6.572 -0.1894 -0.0262  0.0155
 1350CHOL    R515504  13.226  14.542   6.867 -0.0453 -0.0564  0.0312
 1350CHOL    R615505  13.284  14.521   6.403 -0.1143 -0.0479  0.0221
 1350CHOL    C115506  13.270  14.294   6.127 -0.2577 -0.0204  0.0058
 1350CHOL    C215507  13.303  14.399   5.694 -0.2630  0.1742  0.0577
 1351CHOL   ROH15508  24.442   7.509   7.517 -0.2099 -0.1268 -0.0888
 1351CHOL    R115509  24.492   7.731   7.150 -0.0297 -0.0510 -0.0194
 1351CHOL    R215510  24.660   7.444   7.252 -0.1627 -0.1397 -0.0469
 1351CHOL    R315511  24.673   7.698   6.764  0.0617 -0.0190  0.0205
 1351CHOL    R415512  24.745   7.394   6.958 -0.1026 -0.0957 -0.0373
 1351CHOL    R515513  24.436   7.374   7.161 -0.1644 -0.0337 -0.1251
 1351CHOL    R615514  24.603   7.433   6.729 -0.0270  0.0155 -0.0659
 1351CHOL    C115515  24.909   7.456   6.545  0.0311 -0.0501  0.0219
 1351CHOL    C215516  24.913   7.551   6.122  0.0762  0.2108  0.0021
 1352CHOL   ROH15517  21.227  27.006   5.989  0.0139 -0.2424 -0.0619
 1352CHOL    R115518  21.098  26.594   5.986  0.1107 -0.2725 -0.1414
 1352CHOL    R215519  20.961  26.864   5.814 -0.0386 -0.2447  0.0188
 1352CHOL    R315520  20.843  26.328   5.769  0.0679 -0.2580 -0.1091
 1352CHOL    R415521  20.820  26.665   5.623 -0.0846 -0.2120  0.0186
 1352CHOL    R515522  21.164  26.785   5.686 -0.0814 -0.1523 -0.1086
 1352CHOL    R615523  20.911  26.429   5.521 -0.0777 -0.1551 -0.1083
 1352CHOL    C115524  20.574  26.321   5.470 -0.0779 -0.2175  0.0200
 1352CHOL    C215525  20.304  26.050   5.276  0.2559 -0.2146  0.2544
 1353CHOL   ROH15526   1.527  10.717   4.056  0.0318  0.0682 -0.0343
 1353CHOL    R115527   1.682  10.375   4.269  0.0321  0.0845 -0.0085
 1353CHOL    R215528   1.584  10.683   4.399  0.0689  0.1081 -0.0365
 1353CHOL    R315529   1.724  10.223   4.666  0.0671  0.1323  0.0062
 1353CHOL    R415530   1.563  10.553   4.679  0.0921  0.1454 -0.0175
 1353CHOL    R515531   1.376  10.545   4.360  0.0546  0.1178  0.0051
 1353CHOL    R615532   1.474  10.305   4.749  0.0825  0.1607  0.0246
 1353CHOL    C115533   1.663  10.323   5.052  0.1187  0.1860  0.0005
 1353CHOL    C215534   2.079  10.287   5.167 -0.3006 -0.0012  0.1497
 1354CHOL   ROH15535  18.385   6.467   6.321  0.0855  0.1245 -0.0184
 1354CHOL    R115536  18.520   6.428   5.913 -0.0482  0.1245 -0.0628
 1354CHOL    R215537  18.204   6.521   6.028 -0.0285  0.0650  0.0405
 1354CHOL    R315538  18.402   6.527   5.514 -0.2088  0.0711 -0.0293
 1354CHOL    R415539  18.143   6.641   5.749 -0.1515  0.0322  0.0530
 1354CHOL    R515540  18.355   6.723   6.042 -0.0668  0.0983 -0.0265
 1354CHOL    R615541  18.307   6.778   5.580 -0.2398  0.0556 -0.0144
 1354CHOL    C115542  18.097   6.688   5.305 -0.3168 -0.0089  0.0650
 1354CHOL    C215543  18.259   6.923   4.963  0.0909  0.1087 -0.2104
 1355CHOL   ROH15544  11.965  15.066   4.217  0.0553  0.0086 -0.0056
 1355CHOL    R115545  11.849  15.066   4.633 -0.0422 -0.0738 -0.0324
 1355CHOL    R215546  11.858  15.335   4.412  0.1316 -0.0051  0.0561
 1355CHOL    R315547  11.654  15.313   4.923  0.0015 -0.0793  0.0016
 1355CHOL    R415548  11.670  15.492   4.601  0.1581  0.0187  0.0626
 1355CHOL    R515549  11.645  15.205   4.369  0.0823  0.1045 -0.0361
 1355CHOL    R615550  11.458  15.402   4.749  0.0823  0.0662 -0.0163
 1355CHOL    C115551  11.495  15.681   4.970  0.1570 -0.0217  0.0829
 1355CHOL    C215552  11.314  15.894   5.285 -0.0163 -0.0076  0.0554
 1356CHOL   ROH15553  12.266  12.323   6.056 -0.1467  0.0927 -0.0200
 1356CHOL    R115554  12.249  12.629   5.753 -0.1057 -0.0393 -0.1567
 1356CHOL    R215555  12.268  12.284   5.710 -0.1188 -0.0599 -0.0033
 1356CHOL    R315556  12.184  12.676   5.332 -0.0672 -0.2210 -0.1838
 1356CHOL    R415557  12.167  12.319   5.419 -0.0921 -0.1830 -0.0278
 1356CHOL    R515558  12.028  12.343   5.761 -0.1204 -0.0254 -0.0498
 1356CHOL    R615559  11.979  12.491   5.320 -0.0753 -0.2168 -0.1196
 1356CHOL    C115560  12.127  12.463   4.995 -0.0487 -0.3671 -0.0955
 1356CHOL    C215561  11.916  12.665   4.667  0.1736  0.1770 -0.2876
 1357CHOL   ROH15562  10.035  15.922   3.800  0.1194  0.0284  0.0639
 1357CHOL    R115563  10.101  16.215   4.110 -0.0034  0.0762  0.0451
 1357CHOL    R215564   9.802  16.132   3.952  0.0615  0.0641 -0.0729
 1357CHOL    R315565   9.885  16.459   4.387 -0.1150  0.1318 -0.0892
 1357CHOL    R415566   9.646  16.264   4.186 -0.0358  0.1096 -0.1623
 1357CHOL    R515567   9.848  15.958   4.129 -0.0238  0.0908 -0.0236
 1357CHOL    R615568   9.702  16.262   4.453 -0.1532  0.1509 -0.1369
 1357CHOL    C115569   9.510  16.560   4.494 -0.1583  0.1667 -0.2706
 1357CHOL    C215570   9.369  16.675   4.897 -0.0568  0.0212  0.2394
 1358CHOL   ROH15571   6.653   6.134   6.792 -0.1363 -0.0887 -0.0006
 1358CHOL    R115572   6.592   5.961   6.402 -0.0276  0.0385 -0.0747
 1358CHOL    R215573   6.498   6.276   6.514 -0.0822 -0.0077  0.0103
 1358CHOL    R315574   6.480   6.070   6.004  0.0582  0.1640 -0.0649
 1358CHOL    R415575   6.470   6.369   6.220 -0.0196  0.0901  0.0345
 1358CHOL    R515576   6.743   6.285   6.455 -0.0686  0.0341  0.0717
 1358CHOL    R615577   6.625   6.306   6.004  0.0377  0.1773  0.0499
 1358CHOL    C115578   6.352   6.385   5.787  0.0827  0.2269  0.0110
 1358CHOL    C215579   6.335   6.295   5.356 -0.3781 -0.5010 -0.0592
 1359CHOL   ROH15580  17.556   9.134   6.799 -0.2726  0.2078 -0.0828
 1359CHOL    R115581  17.858   9.309   6.546 -0.1659  0.1715  0.0188
 1359CHOL    R215582  17.580   9.122   6.451 -0.0869  0.0965 -0.0673
 1359CHOL    R315583  17.936   9.399   6.135  0.0368  0.0478  0.0284
 1359CHOL    R415584  17.608   9.234   6.163  0.0470  0.0057 -0.0907
 1359CHOL    R515585  17.504   9.359   6.496 -0.1490  0.0998 -0.1853
 1359CHOL    R615586  17.678   9.485   6.081  0.0505 -0.0101 -0.1364
 1359CHOL    C115587  17.780   9.352   5.766  0.2387 -0.0987 -0.0396
 1359CHOL    C215588  18.018   9.382   5.392  0.0920 -0.0010  0.1479
 1360CHOL   ROH15589  19.435   9.106   6.939  0.2750 -0.0124  0.0377
 1360CHOL    R115590  19.671   9.037   6.585  0.1956 -0.0221 -0.0136
 1360CHOL    R215591  19.378   9.221   6.615  0.1739 -0.0644  0.0366
 1360CHOL    R315592  19.717   9.178   6.184  0.0710 -0.0681 -0.0445
 1360CHOL    R415593  19.443   9.362   6.347  0.0831 -0.0896  0.0008
 1360CHOL    R515594  19.569   9.365   6.696  0.1719 -0.0233 -0.0313
 1360CHOL    R615595  19.685   9.445   6.250  0.0456 -0.0641 -0.0719
 1360CHOL    C115596  19.553   9.432   5.917 -0.0377 -0.1292 -0.0371
 1360CHOL    C215597  19.637   9.372   5.493  0.3005 -0.0294 -0.2139
 1361CHOL   ROH15598   9.306  26.129   3.932 -0.0955 -0.0633  0.0762
 1361CHOL    R115599   9.665  26.216   4.153  0.0404 -0.0863 -0.1322
 1361CHOL    R215600   9.451  25.944   4.189 -0.0701  0.0316  0.1304
 1361CHOL    R315601   9.941  26.033   4.423  0.0721 -0.0428 -0.1351
 1361CHOL    R415602   9.676  25.792   4.339 -0.0752  0.0229  0.1294
 1361CHOL    R515603   9.602  25.899   3.992 -0.1739 -0.1611  0.0922
 1361CHOL    R615604   9.945  25.790   4.291 -0.0957 -0.1291  0.0146
 1361CHOL    C115605  10.003  25.692   4.630  0.0040  0.0569  0.0525
 1361CHOL    C215606  10.199  25.493   4.996  0.2367 -0.6130 -0.2893
 1362CHOL   ROH15607  16.683   4.829   4.198 -0.0168  0.0329  0.0130
 1362CHOL    R115608  16.564   4.937   4.598  0.0640  0.1688  0.0008
 1362CHOL    R215609  16.844   4.755   4.498 -0.0108  0.0464  0.0132
 1362CHOL    R315610  16.717   4.949   4.997  0.1109  0.2086 -0.0182
 1362CHOL    R415611  16.975   4.813   4.773  0.0392  0.0645 -0.0143
 1362CHOL    R515612  16.894   5.000   4.464  0.0723  0.0210 -0.0494
 1362CHOL    R615613  16.967   5.041   4.924  0.1357  0.1028 -0.0665
 1362CHOL    C115614  17.040   4.849   5.216  0.0990  0.1454 -0.0293
 1362CHOL    C215615  17.114   5.067   5.597  0.1399 -0.1850 -0.0196
 1363CHOL   ROH15616  23.169  11.263   3.848  0.2139  0.0583 -0.0014
 1363CHOL    R115617  23.089  11.032   4.204  0.1052  0.0517 -0.0299
 1363CHOL    R215618  23.166  11.370   4.180  0.0981  0.0553 -0.0011
 1363CHOL    R315619  23.003  11.082   4.620 -0.0363  0.0442 -0.0576
 1363CHOL    R415620  23.051  11.413   4.465  0.0008  0.0477 -0.0387
 1363CHOL    R515621  22.921  11.342   4.125  0.1174  0.0447 -0.0833
 1363CHOL    R615622  22.833  11.298   4.582 -0.0337  0.0369 -0.1126
 1363CHOL    C115623  22.972  11.366   4.905 -0.1446  0.0404 -0.0652
 1363CHOL    C215624  22.966  11.327   5.317 -0.0543 -0.0033  0.1060
 1364CHOL   ROH15625  20.939   3.773   6.801 -0.0262  0.2408  0.0196
 1364CHOL    R115626  20.880   3.964   6.419  0.0454  0.1605 -0.0317
 1364CHOL    R215627  21.152   3.776   6.526 -0.0107  0.1138  0.0299
 1364CHOL    R315628  21.041   3.970   6.023  0.0681  0.0172 -0.0252
 1364CHOL    R415629  21.237   3.737   6.230 -0.0054  0.0166  0.0440
 1364CHOL    R515630  20.970   3.616   6.457 -0.0502  0.1453  0.0607
 1364CHOL    R615631  21.080   3.696   6.010 -0.0045  0.0030  0.0458
 1364CHOL    C115632  21.344   3.820   5.802  0.0399 -0.1200  0.0281
 1364CHOL    C215633  21.453   3.919   5.405 -0.1456 -0.2134 -0.4019
 1365CHOL   ROH15634   5.584  10.325   7.026  0.0425  0.0768 -0.1292
 1365CHOL    R115635   5.855  10.262   6.697  0.1183 -0.0885 -0.0362
 1365CHOL    R215636   5.536  10.132   6.739  0.0336  0.0846 -0.1330
 1365CHOL    R315637   5.864  10.107   6.298  0.1669 -0.1176 -0.0240
 1365CHOL    R415638   5.524  10.071   6.436  0.1006  0.0720 -0.1330
 1365CHOL    R515639   5.513  10.369   6.655  0.1876  0.0923 -0.1556
 1365CHOL    R615640   5.620  10.217   6.226  0.2481  0.0086 -0.1112
 1365CHOL    C115641   5.632   9.921   6.026  0.1558 -0.0107 -0.0885
 1365CHOL    C215642   5.708   9.651   5.684  0.0702 -0.0084 -0.4212
 1366CHOL   ROH15643   9.420  20.853   6.871 -0.1309 -0.1378 -0.0120
 1366CHOL    R115644   9.590  21.012   6.508  0.0446 -0.2249  0.0314
 1366CHOL    R215645   9.453  20.696   6.561 -0.1609 -0.1445 -0.0120
 1366CHOL    R315646   9.617  20.928   6.089  0.0828 -0.2215  0.0331
 1366CHOL    R415647   9.423  20.662   6.255 -0.1167 -0.1119 -0.0200
 1366CHOL    R515648   9.264  20.859   6.525 -0.0542 -0.0258 -0.0453
 1366CHOL    R615649   9.353  20.846   6.066  0.0365 -0.0593 -0.0269
 1366CHOL    C115650   9.516  20.650   5.815 -0.0297 -0.1479 -0.0009
 1366CHOL    C215651   9.833  20.638   5.485  0.2282 -0.1144 -0.1108
 1367CHOL   ROH15652  14.109   1.705   4.000 -0.0371 -0.1031  0.0602
 1367CHOL    R115653  14.371   1.562   4.312  0.1897  0.0242 -0.0689
 1367CHOL    R215654  14.233   1.880   4.276 -0.1178 -0.0876  0.0867
 1367CHOL    R315655  14.516   1.672   4.699  0.2030  0.0184 -0.0723
 1367CHOL    R415656  14.291   1.935   4.575 -0.0810 -0.1422  0.0899
 1367CHOL    R515657  14.057   1.729   4.376  0.0503 -0.2890  0.0856
 1367CHOL    R615658  14.272   1.767   4.789  0.1382 -0.2400  0.0356
 1367CHOL    C115659  14.504   1.972   4.969  0.0030 -0.0885  0.0399
 1367CHOL    C215660  14.703   1.944   5.339 -0.1881  0.0917  0.0647
 1368CHOL   ROH15661  25.761   3.274   4.749 -0.1020 -0.0962 -0.0818
 1368CHOL    R115662  25.851   3.011   5.079  0.3855 -0.0646 -0.1816
 1368CHOL    R215663  25.880   3.357   5.066 -0.1754 -0.0042 -0.0781
 1368CHOL    R315664  25.933   3.021   5.499  0.4487 -0.0666 -0.1938
 1368CHOL    R415665  25.884   3.365   5.376 -0.1300 -0.0965 -0.0762
 1368CHOL    R515666  25.637   3.301   5.107 -0.0830 -0.4099 -0.0488
 1368CHOL    R615667  25.743   3.214   5.554  0.1423 -0.3860 -0.0959
 1368CHOL    C115668  25.991   3.278   5.804  0.0913 -0.0640 -0.1236
 1368CHOL    C215669  26.241   3.223   6.165 -0.0102  0.2754  0.1997
 1369CHOL   ROH15670  12.928  18.008   7.184  0.0452 -0.1611 -0.0442
 1369CHOL    R115671  12.803  17.859   6.799 -0.0987  0.0057 -0.0635
 1369CHOL    R215672  13.067  18.074   6.871  0.0471 -0.1760 -0.0465
 1369CHOL    R315673  12.939  17.832   6.394 -0.1678  0.0141 -0.0873
 1369CHOL    R415674  13.191  18.008   6.595 -0.0293 -0.1906 -0.0777
 1369CHOL    R515675  13.143  17.839   6.920 -0.0944 -0.2360 -0.1110
 1369CHOL    R615676  13.200  17.771   6.461 -0.1962 -0.1662 -0.1345
 1369CHOL    C115677  13.241  17.947   6.153 -0.1253 -0.1195 -0.0988
 1369CHOL    C215678  13.311  17.960   5.721  0.0556 -0.0276  0.2443
 1370CHOL   ROH15679  20.264  26.168   7.223 -0.0520  0.2111  0.0225
 1370CHOL    R115680  20.391  26.398   6.880 -0.0582  0.1682 -0.0088
 1370CHOL    R215681  20.240  26.084   6.885 -0.0617  0.1705  0.0332
 1370CHOL    R315682  20.349  26.410   6.455 -0.0690  0.1170 -0.0092
 1370CHOL    R415683  20.163  26.121   6.587 -0.0690  0.1352  0.0307
 1370CHOL    R515684  20.060  26.258   6.915 -0.0590  0.1762  0.0168
 1370CHOL    R615685  20.080  26.346   6.457 -0.0699  0.1204  0.0055
 1370CHOL    C115686  20.189  26.205   6.147 -0.0795  0.0815  0.0197
 1370CHOL    C215687  20.302  26.123   5.748  0.0746 -0.1377 -0.2854
 1371CHOL   ROH15688   2.433   6.296   4.653 -0.0999 -0.0642  0.0400
 1371CHOL    R115689   2.202   6.523   4.938 -0.0829 -0.1216  0.0998
 1371CHOL    R215690   2.444   6.281   5.001 -0.0157 -0.0712  0.0374
 1371CHOL    R315691   2.188   6.618   5.355 -0.0064 -0.1355  0.1056
 1371CHOL    R415692   2.470   6.390   5.290  0.0282 -0.0731  0.0342
 1371CHOL    R515693   2.562   6.498   4.948 -0.0746 -0.0442  0.0154
 1371CHOL    R615694   2.462   6.648   5.380 -0.0066 -0.0771  0.0427
 1371CHOL    C115695   2.368   6.531   5.705  0.0940 -0.1060  0.0616
 1371CHOL    C215696   2.233   6.603   6.121 -0.2309 -0.3624 -0.1676
 1372CHOL   ROH15697   3.059   3.564   7.374 -0.1064 -0.1816 -0.0367
 1372CHOL    R115698   3.225   3.259   7.118 -0.2022 -0.2136 -0.0610
 1372CHOL    R215699   3.015   3.522   7.030 -0.0109 -0.0602 -0.0643
 1372CHOL    R315700   3.280   3.166   6.704 -0.1124 -0.1331 -0.0674
 1372CHOL    R415701   3.101   3.486   6.735  0.0721 -0.0308 -0.0441
 1372CHOL    R515702   3.250   3.612   7.049  0.0388 -0.2084  0.0440
 1372CHOL    R615703   3.346   3.425   6.632  0.0720 -0.1523  0.0264
 1372CHOL    C115704   3.189   3.301   6.335  0.1000  0.0248 -0.0639
 1372CHOL    C215705   3.231   3.109   5.937  0.1039  0.3977 -0.0449
 1373CHOL   ROH15706   7.788  26.810   4.504 -0.0112  0.1528  0.0587
 1373CHOL    R115707   8.114  26.715   4.770 -0.0035  0.1443  0.0463
 1373CHOL    R215708   7.929  27.009   4.753 -0.0267  0.1320  0.0840
 1373CHOL    R315709   8.302  26.856   5.127 -0.0144  0.1136  0.0642
 1373CHOL    R415710   8.026  27.083   5.038 -0.0322  0.1034  0.0934
 1373CHOL    R515711   7.794  26.840   4.882 -0.0133  0.1049  0.0626
 1373CHOL    R615712   8.065  26.921   5.254 -0.0194  0.0786  0.0728
 1373CHOL    C115713   8.293  27.161   5.391 -0.0381  0.0791  0.1031
 1373CHOL    C215714   8.629  27.200   5.667 -0.1095  0.0071 -0.1322
 1374CHOL   ROH15715   1.845   7.442   5.062  0.0122  0.1409 -0.1241
 1374CHOL    R115716   1.897   7.772   5.335 -0.1812  0.0937 -0.0286
 1374CHOL    R215717   1.852   7.436   5.411  0.0761  0.0348 -0.1269
 1374CHOL    R315718   1.979   7.853   5.747 -0.1693  0.0227 -0.0170
 1374CHOL    R415719   1.964   7.489   5.695  0.0864  0.0267 -0.1294
 1374CHOL    R515720   2.094   7.470   5.348  0.0420  0.2306 -0.1584
 1374CHOL    R615721   2.168   7.653   5.772 -0.0186  0.1512 -0.1131
 1374CHOL    C115722   2.030   7.668   6.102  0.0257 -0.0537 -0.0840
 1374CHOL    C215723   1.849   7.824   6.473 -0.0655  0.0703  0.1372
 1375CHOL   ROH15724   1.425  20.181   7.174 -0.0297  0.1266 -0.1168
 1375CHOL    R115725   1.393  20.407   6.808  0.0600  0.0622 -0.1650
 1375CHOL    R215726   1.382  20.062   6.849 -0.0843  0.0750 -0.0909
 1375CHOL    R315727   1.281  20.362   6.398  0.0345  0.0213 -0.1535
 1375CHOL    R415728   1.249  20.038   6.570 -0.0988  0.0710 -0.0837
 1375CHOL    R515729   1.155  20.156   6.908 -0.0446  0.1830 -0.1072
 1375CHOL    R615730   1.063  20.200   6.452 -0.0329  0.1239 -0.1153
 1375CHOL    C115731   1.167  20.083   6.130 -0.0867  0.0112 -0.0921
 1375CHOL    C215732   1.021  20.102   5.715  0.0482  0.3198 -0.0140
 1376CHOL   ROH15733  12.743   1.104   4.115 -0.1132 -0.0728 -0.1340
 1376CHOL    R115734  12.773   1.499   4.285 -0.0356 -0.0917 -0.1039
 1376CHOL    R215735  12.531   1.256   4.346 -0.0373 -0.0790 -0.0600
 1376CHOL    R315736  12.613   1.736   4.603  0.0708 -0.1101 -0.0359
 1376CHOL    R415737  12.454   1.404   4.607  0.0466 -0.0984 -0.0239
 1376CHOL    R515738  12.735   1.198   4.482 -0.0035 -0.1079 -0.1224
 1376CHOL    R615739  12.614   1.531   4.788  0.1069 -0.1282 -0.0561
 1376CHOL    C115740  12.336   1.728   4.896  0.1516 -0.1172  0.0406
 1376CHOL    C215741  12.269   2.072   5.151 -0.2029  0.1342  0.1093
 1377CHOL   ROH15742  17.107   4.036   6.696 -0.0497  0.2549 -0.0255
 1377CHOL    R115743  16.773   3.903   6.457  0.1707 -0.0539 -0.1681
 1377CHOL    R215744  17.024   4.129   6.370 -0.0183  0.2076 -0.0471
 1377CHOL    R315745  16.631   3.907   6.054  0.3192 -0.1524 -0.2223
 1377CHOL    R415746  16.952   4.087   6.071  0.1370  0.1682 -0.0795
 1377CHOL    R515747  17.116   3.896   6.343  0.2257  0.3005 -0.0388
 1377CHOL    R615748  16.880   3.858   5.942  0.4144  0.1071 -0.1338
 1377CHOL    C115749  16.720   4.054   5.688  0.3139 -0.0232 -0.1723
 1377CHOL    C215750  16.407   3.881   5.436  0.1646 -0.0386  0.2095
 1378CHOL   ROH15751   7.671   1.175   6.875 -0.0141  0.0271 -0.0244
 1378CHOL    R115752   7.781   0.915   6.549 -0.0658  0.0036 -0.0231
 1378CHOL    R215753   7.471   0.945   6.705 -0.0321 -0.0106  0.0472
 1378CHOL    R315754   7.605   0.663   6.251 -0.1118 -0.0453  0.0450
 1378CHOL    R415755   7.339   0.810   6.459 -0.0770 -0.0496  0.0928
 1378CHOL    R515756   7.495   1.135   6.541 -0.0897 -0.0255  0.0213
 1378CHOL    R615757   7.398   0.837   6.194 -0.1426 -0.0718  0.0758
 1378CHOL    C115758   7.249   0.518   6.129 -0.1268 -0.0934  0.1447
 1378CHOL    C215759   7.222   0.226   5.813  0.1614  0.0383  0.1629
 1379CHOL   ROH15760  12.176  16.625   4.093  0.1645  0.0338 -0.0620
 1379CHOL    R115761  12.364  16.896   4.370 -0.0461  0.0243  0.0925
 1379CHOL    R215762  12.236  16.579   4.433  0.1791 -0.1036 -0.0827
 1379CHOL    R315763  12.531  16.906   4.764 -0.0742 -0.0643  0.1067
 1379CHOL    R415764  12.404  16.567   4.694  0.1735 -0.1213 -0.0798
 1379CHOL    R515765  12.465  16.552   4.329  0.2053  0.1166 -0.0860
 1379CHOL    R615766  12.656  16.660   4.741  0.1052  0.0364 -0.0181
 1379CHOL    C115767  12.583  16.676   5.091  0.0737 -0.2020 -0.0122
 1379CHOL    C215768  12.595  16.826   5.490  0.2067 -0.1624  0.4928
 1380CHOL   ROH15769  22.482  11.473   3.850  0.0608 -0.2766 -0.0367
 1380CHOL    R115770  22.195  11.167   3.748 -0.0570 -0.1540 -0.0755
 1380CHOL    R215771  22.337  11.234   4.059 -0.0723 -0.2133 -0.0556
 1380CHOL    R315772  21.928  10.888   3.931 -0.2040 -0.0381 -0.1116
 1380CHOL    R415773  22.108  11.074   4.193 -0.1607 -0.1141 -0.0871
 1380CHOL    R515774  22.151  11.399   4.021  0.0039 -0.1328 -0.0834
 1380CHOL    R615775  21.843  11.064   4.128 -0.1565 -0.0001 -0.1249
 1380CHOL    C115776  21.816  10.747   4.292 -0.3164  0.0120 -0.1265
 1380CHOL    C215777  21.937  10.326   4.230 -0.0767  0.0214 -0.1384
 1381CHOL   ROH15778  15.311   7.833   6.512  0.1376  0.0242 -0.0468
 1381CHOL    R115779  15.129   7.824   6.121  0.1941 -0.0459 -0.0716
 1381CHOL    R215780  15.204   8.102   6.317  0.0602 -0.0169 -0.0610
 1381CHOL    R315781  15.029   8.083   5.796  0.1382 -0.0841 -0.0848
 1381CHOL    R415782  15.183   8.281   6.065  0.0254 -0.0243 -0.0635
 1381CHOL    R515783  15.416   8.028   6.203  0.1048  0.0652 -0.0322
 1381CHOL    R615784  15.264   8.229   5.809  0.0804  0.0070 -0.0527
 1381CHOL    C115785  15.031   8.471   5.688  0.0027 -0.0827 -0.0839
 1381CHOL    C215786  14.971   8.720   5.294 -0.2940 -0.2523 -0.1077
 1382CHOL   ROH15787  22.693  18.656   6.655 -0.0524  0.1993  0.2498
 1382CHOL    R115788  22.348  18.906   6.586 -0.1635  0.0099  0.1064
 1382CHOL    R215789  22.563  18.766   6.351 -0.0215  0.0796  0.1926
 1382CHOL    R315790  22.088  19.034   6.272 -0.1392 -0.1789  0.0082
 1382CHOL    R415791  22.347  18.811   6.133  0.0175 -0.0697  0.1214
 1382CHOL    R515792  22.399  18.588   6.424  0.0491  0.0071  0.1752
 1382CHOL    R615793  22.075  18.785   6.151  0.0248 -0.2072  0.0465
 1382CHOL    C115794  22.037  19.007   5.873 -0.0095 -0.2742 -0.0026
 1382CHOL    C215795  21.851  19.357   5.670 -0.0647 -0.3225 -0.2188
 1383CHOL   ROH15796   2.247   4.364   7.037  0.2393 -0.2632  0.0024
 1383CHOL    R115797   2.479   4.176   6.726  0.1610 -0.1171 -0.1463
 1383CHOL    R215798   2.172   4.336   6.698  0.1548 -0.1000  0.0066
 1383CHOL    R315799   2.503   4.148   6.300  0.0550  0.0867 -0.1669
 1383CHOL    R415800   2.219   4.363   6.392  0.0793  0.0458  0.0068
 1383CHOL    R515801   2.352   4.513   6.704  0.1577 -0.1041  0.0467
 1383CHOL    R615802   2.449   4.416   6.257  0.0461  0.1087 -0.0253
 1383CHOL    C115803   2.312   4.263   5.964 -0.0277  0.2497 -0.0654
 1383CHOL    C215804   2.448   4.354   5.558 -0.0087 -0.0786 -0.0972
 1384CHOL   ROH15805   3.239   4.393   5.318  0.0441  0.0624 -0.1882
 1384CHOL    R115806   2.831   4.258   5.274  0.0449  0.0292 -0.0959
 1384CHOL    R215807   3.113   4.069   5.353  0.0698  0.0606 -0.1095
 1384CHOL    R315808   2.583   3.919   5.355  0.0792  0.0280  0.0060
 1384CHOL    R415809   2.927   3.846   5.462  0.1019  0.0684 -0.0387
 1384CHOL    R515810   3.035   4.186   5.563  0.0980  0.0932 -0.1171
 1384CHOL    R615811   2.695   3.868   5.603  0.1241  0.0790 -0.0035
 1384CHOL    C115812   2.599   3.541   5.494  0.1258  0.0536  0.0706
 1384CHOL    C215813   2.280   3.264   5.393 -0.3298 -0.3562 -0.0983
 1385CHOL   ROH15814   3.496  12.696   6.635 -0.0697  0.2749 -0.0350
 1385CHOL    R115815   3.602  12.916   6.279 -0.1018  0.1356 -0.1319
 1385CHOL    R215816   3.409  12.628   6.304 -0.0567  0.1152 -0.0065
 1385CHOL    R315817   3.499  12.949   5.866 -0.1040 -0.0629 -0.1479
 1385CHOL    R415818   3.294  12.686   6.022 -0.0637 -0.0268 -0.0336
 1385CHOL    R515819   3.263  12.825   6.364 -0.0881  0.1191 -0.0945
 1385CHOL    R615820   3.226  12.925   5.908 -0.1005 -0.0871 -0.1396
 1385CHOL    C115821   3.265  12.780   5.583 -0.0754 -0.2243 -0.0762
 1385CHOL    C215822   3.235  12.978   5.199 -0.0527  0.2710 -0.1361
 1386CHOL   ROH15823  11.606  26.578   7.356  0.1759 -0.2927  0.1214
 1386CHOL    R115824  11.940  26.661   7.097  0.0659 -0.0074  0.0671
 1386CHOL    R215825  11.630  26.529   7.012  0.1252 -0.1704  0.0999
 1386CHOL    R315826  12.039  26.695   6.682 -0.0515  0.1824  0.0534
 1386CHOL    R415827  11.683  26.606   6.716  0.0095 -0.0452  0.1105
 1386CHOL    R515828  11.605  26.779   7.034 -0.0224 -0.1912  0.1835
 1386CHOL    R615829  11.805  26.827   6.614 -0.1493  0.0622  0.1500
 1386CHOL    C115830  11.880  26.647   6.314 -0.1091  0.2007  0.0759
 1386CHOL    C215831  12.072  26.608   5.937 -0.0604 -0.2765  0.2604
 1387CHOL   ROH15832  17.213  16.702   7.337 -0.0527 -0.1008  0.0480
 1387CHOL    R115833  17.401  17.086   7.274  0.0844 -0.1502  0.1504
 1387CHOL    R215834  17.345  16.833   7.042 -0.0715 -0.0404  0.0661
 1387CHOL    R315835  17.527  17.346   6.959  0.1120 -0.0794  0.2194
 1387CHOL    R415836  17.384  17.039   6.814 -0.0444  0.0315  0.1354
 1387CHOL    R515837  17.130  16.961   7.071 -0.0144  0.0346  0.1661
 1387CHOL    R615838  17.305  17.300   6.801  0.0553  0.0690  0.2541
 1387CHOL    C115839  17.559  17.365   6.558  0.0232  0.0611  0.2184
 1387CHOL    C215840  17.823  17.615   6.297 -0.2319 -0.3272  0.1342
 1388CHOL   ROH15841   4.911   2.642   4.689 -0.0276 -0.0101 -0.1315
 1388CHOL    R115842   5.042   2.569   5.093 -0.0543 -0.0305 -0.1265
 1388CHOL    R215843   5.184   2.780   4.856 -0.0498 -0.0041 -0.1003
 1388CHOL    R315844   5.306   2.727   5.391 -0.0878 -0.0343 -0.0946
 1388CHOL    R415845   5.333   2.929   5.084 -0.0772 -0.0106 -0.0781
 1388CHOL    R515846   4.986   2.899   4.958 -0.0655 -0.0245 -0.1072
 1388CHOL    R615847   5.246   2.992   5.335 -0.1009 -0.0342 -0.0802
 1388CHOL    C115848   5.586   3.012   5.446 -0.1108 -0.0198 -0.0524
 1388CHOL    C215849   5.897   2.925   5.710 -0.5107  0.0310 -0.2759
 1389CHOL   ROH15850  26.760  18.077   7.510  0.0624  0.1295  0.0592
 1389CHOL    R115851  26.645  17.932   7.121 -0.0297  0.0318  0.1222
 1389CHOL    R215852  26.719  18.258   7.216  0.0911  0.0408  0.0002
 1389CHOL    R315853  26.631  18.055   6.712 -0.0335 -0.1061  0.0801
 1389CHOL    R415854  26.761  18.331   6.917  0.0827 -0.0775 -0.0304
 1389CHOL    R515855  26.937  18.137   7.179  0.0462 -0.0454  0.0180
 1389CHOL    R615856  26.876  18.184   6.718  0.0111 -0.1862  0.0077
 1389CHOL    C115857  26.697  18.375   6.475  0.0485 -0.2102 -0.0390
 1389CHOL    C215858  26.481  18.470   6.098 -0.0467  0.1670  0.1047
 1390CHOL   ROH15859   7.077   8.115   4.170  0.0095  0.1000 -0.0915
 1390CHOL    R115860   7.058   8.056   4.597  0.0936 -0.0959 -0.1138
 1390CHOL    R215861   7.263   8.274   4.419 -0.0628  0.1115 -0.0442
 1390CHOL    R315862   7.189   8.235   4.963  0.0210 -0.1699 -0.0512
 1390CHOL    R415863   7.312   8.435   4.679 -0.1359  0.0313  0.0198
 1390CHOL    R515864   7.035   8.380   4.439 -0.1288 -0.0407  0.0277
 1390CHOL    R615865   7.138   8.495   4.881 -0.1523 -0.1652  0.0659
 1390CHOL    C115866   7.414   8.539   5.104 -0.1546 -0.0870  0.0536
 1390CHOL    C215867   7.383   8.761   5.508 -0.2071  0.1752  0.0918
 1391CHOL   ROH15868  19.409  25.855   7.050 -0.2025 -0.1643 -0.0265
 1391CHOL    R115869  19.098  25.878   6.752 -0.0610  0.0738 -0.1597
 1391CHOL    R215870  19.441  25.858   6.702 -0.0504 -0.1507 -0.0129
 1391CHOL    R315871  19.035  25.826   6.332  0.0854  0.1576 -0.1924
 1391CHOL    R415872  19.390  25.767   6.411  0.0142 -0.0874 -0.0444
 1391CHOL    R515873  19.356  25.626   6.751 -0.2273 -0.0998 -0.0718
 1391CHOL    R615874  19.196  25.602   6.313 -0.0553  0.0512 -0.1443
 1391CHOL    C115875  19.234  25.750   5.990  0.1835  0.0591 -0.1144
 1391CHOL    C215876  19.130  25.741   5.553 -0.1520  0.0023  0.0913
 1392CHOL   ROH15877   4.901   0.578   7.514  0.1867 -0.1063  0.1061
 1392CHOL    R115878   5.046   0.938   7.325 -0.0261 -0.0146  0.1143
 1392CHOL    R215879   4.965   0.634   7.176  0.1496 -0.0592  0.1068
 1392CHOL    R315880   5.091   1.115   6.938 -0.1345  0.0234  0.1187
 1392CHOL    R415881   4.945   0.779   6.902  0.0613 -0.0626  0.1112
 1392CHOL    R515882   4.751   0.761   7.217  0.0752 -0.1855  0.1132
 1392CHOL    R615883   4.846   1.027   6.844 -0.0850 -0.1178  0.1194
 1392CHOL    C115884   5.044   1.034   6.546 -0.0927  0.0062  0.1171
 1392CHOL    C215885   5.053   1.280   6.170  0.1671 -0.1475  0.2766
 1393CHOL   ROH15886  14.432  20.701   3.788 -0.2146 -0.1499 -0.1359
 1393CHOL    R115887  14.318  20.949   4.122 -0.0485 -0.1460 -0.0807
 1393CHOL    R215888  14.185  20.642   4.027 -0.1910 -0.0812 -0.0940
 1393CHOL    R315889  14.089  20.934   4.483  0.0177 -0.1001 -0.0365
 1393CHOL    R415890  14.065  20.610   4.311 -0.1469 -0.0697 -0.0740
 1393CHOL    R515891  14.400  20.599   4.152 -0.1825 -0.1835 -0.1424
 1393CHOL    R615892  14.172  20.680   4.552 -0.0701 -0.1430 -0.0861
 1393CHOL    C115893  13.843  20.693   4.692 -0.0374 -0.0289 -0.0186
 1393CHOL    C215894  13.793  20.781   5.111  0.2523 -0.0021  0.2614
 1394CHOL   ROH15895  22.523   3.123   4.191 -0.0168  0.0088 -0.0812
 1394CHOL    R115896  22.449   2.954   4.581 -0.0390 -0.0236 -0.0994
 1394CHOL    R215897  22.606   3.255   4.503  0.0647 -0.0697 -0.0694
 1394CHOL    R315898  22.453   3.061   4.996  0.0439 -0.0885 -0.0834
 1394CHOL    R415899  22.558   3.351   4.794  0.1307 -0.0962 -0.0496
 1394CHOL    R515900  22.357   3.291   4.489  0.0763  0.0251 -0.0381
 1394CHOL    R615901  22.342   3.311   4.956  0.1324 -0.0407 -0.0334
 1394CHOL    C115902  22.548   3.365   5.243  0.1826 -0.1611 -0.0463
 1394CHOL    C215903  22.442   3.434   5.662  0.1190 -0.3790  0.3111
 1395CHOL   ROH15904  15.631   1.916   7.714 -0.2121  0.1652  0.1255
 1395CHOL    R115905  15.478   1.752   7.346 -0.1054  0.0960  0.1115
 1395CHOL    R215906  15.570   2.081   7.413 -0.1295  0.1097  0.0777
 1395CHOL    R315907  15.432   1.851   6.932  0.0101  0.0202  0.0799
 1395CHOL    R415908  15.588   2.134   7.109 -0.0439  0.0546  0.0730
 1395CHOL    R515909  15.780   1.950   7.366 -0.1139  0.1041  0.1611
 1395CHOL    R615910  15.680   1.971   6.910  0.0148  0.0197  0.1284
 1395CHOL    C115911  15.486   2.154   6.671  0.0794 -0.0263  0.0400
 1395CHOL    C215912  15.458   2.166   6.251 -0.1449  0.1180 -0.0379
 1396CHOL   ROH15913  14.265  25.517   4.323 -0.0396  0.1430 -0.0322
 1396CHOL    R115914  14.418  25.321   4.676 -0.1327 -0.0087 -0.0749
 1396CHOL    R215915  14.258  25.630   4.653  0.1195  0.1288 -0.0231
 1396CHOL    R315916  14.401  25.346   5.103 -0.0286 -0.0214 -0.0698
 1396CHOL    R415917  14.199  25.617   4.957  0.1684  0.1587 -0.0124
 1396CHOL    R515918  14.081  25.449   4.649 -0.0334  0.2755 -0.0006
 1396CHOL    R615919  14.130  25.403   5.112  0.0189  0.2052 -0.0131
 1396CHOL    C115920  14.253  25.573   5.401  0.2191  0.0854 -0.0256
 1396CHOL    C215921  14.444  25.535   5.802  0.1368 -0.0188 -0.1999
 1397CHOL   ROH15922  12.173   4.045   7.397 -0.1639  0.0060  0.0798
 1397CHOL    R115923  12.386   4.318   7.139 -0.1220 -0.0683  0.0352
 1397CHOL    R215924  12.284   3.993   7.070 -0.2180 -0.0460  0.0696
 1397CHOL    R315925  12.499   4.368   6.730 -0.1586 -0.1267  0.0178
 1397CHOL    R415926  12.316   4.051   6.767 -0.2395 -0.0752  0.0617
 1397CHOL    R515927  12.085   4.144   7.041 -0.1810  0.0057  0.0839
 1397CHOL    R615928  12.258   4.278   6.628 -0.1955 -0.0690  0.0535
 1397CHOL    C115929  12.489   4.180   6.373 -0.2530 -0.1484  0.0317
 1397CHOL    C215930  12.569   4.203   5.929 -0.4020  0.1121 -0.1841
 1398CHOL   ROH15931  22.665  15.207   6.820 -0.0819 -0.0706  0.0568
 1398CHOL    R115932  22.750  15.009   6.447 -0.1457 -0.0651  0.0392
 1398CHOL    R215933  22.923  15.272   6.595 -0.1270 -0.0598  0.0080
 1398CHOL    R315934  23.058  14.974   6.152 -0.2005 -0.0520 -0.0197
 1398CHOL    R415935  23.167  15.207   6.415 -0.1588 -0.0498 -0.0388
 1398CHOL    R515936  22.996  15.058   6.707 -0.0980 -0.0579 -0.0071
 1398CHOL    R615937  23.264  14.965   6.336 -0.1649 -0.0458 -0.0589
 1398CHOL    C115938  23.420  15.120   6.054 -0.2242 -0.0382 -0.0877
 1398CHOL    C215939  23.770  14.909   5.887 -0.1144  0.0037  0.1627
 1399CHOL   ROH15940  27.065   8.327   4.299  0.0478 -0.0414  0.1230
 1399CHOL    R115941  27.086   8.330   4.730 -0.0247 -0.0636  0.1269
 1399CHOL    R215942  27.131   8.596   4.511  0.1149 -0.0733  0.1429
 1399CHOL    R315943  27.096   8.602   5.060  0.0232 -0.0778  0.1373
 1399CHOL    R415944  27.082   8.793   4.745  0.1501 -0.0622  0.1409
 1399CHOL    R515945  26.883   8.559   4.539  0.0957  0.0208  0.0993
 1399CHOL    R615946  26.907   8.774   4.953  0.1071 -0.0016  0.1103
 1399CHOL    C115947  27.111   8.996   5.145  0.1599 -0.0860  0.1524
 1399CHOL    C215948  27.175   9.203   5.494 -0.1531  0.0419  0.0681
 1400CHOL   ROH15949   5.510  10.865   6.814  0.0745 -0.3038 -0.0373
 1400CHOL    R115950   5.631  10.669   6.449  0.2019 -0.1267 -0.0914
 1400CHOL    R215951   5.542  11.002   6.495  0.0010 -0.1922  0.0031
 1400CHOL    R315952   5.754  10.759   6.050  0.1594  0.0632 -0.0628
 1400CHOL    R415953   5.681  11.073   6.228 -0.0334 -0.0307  0.0267
 1400CHOL    R515954   5.781  10.975   6.571  0.0164 -0.0710  0.0008
 1400CHOL    R615955   5.913  10.974   6.122  0.0295  0.1380  0.0033
 1400CHOL    C115956   5.803  11.068   5.795 -0.0185  0.1676  0.0279
 1400CHOL    C215957   5.897  11.242   5.405 -0.2312 -0.0976 -0.1594
 1401CHOL   ROH15958  26.982   7.060   4.180  0.1026 -0.0099 -0.0605
 1401CHOL    R115959  27.077   6.998   4.596 -0.0439 -0.1731 -0.0505
 1401CHOL    R215960  26.816   7.184   4.461  0.1107  0.0303 -0.0734
 1401CHOL    R315961  26.909   7.048   4.986 -0.1111 -0.1585 -0.0812
 1401CHOL    R415962  26.670   7.171   4.734  0.0321  0.0583 -0.1137
 1401CHOL    R515963  26.749   6.941   4.455 -0.0468  0.0738 -0.1490
 1401CHOL    R615964  26.655   6.966   4.913 -0.1475  0.0237 -0.1667
 1401CHOL    C115965  26.586   7.199   5.174 -0.0628  0.0065 -0.1284
 1401CHOL    C215966  26.599   7.388   5.544  0.0300 -0.3175 -0.1750
 1402CHOL   ROH15967   8.490  16.723   3.826  0.2016 -0.0184 -0.1145
 1402CHOL    R115968   8.434  16.469   4.170  0.1785 -0.0462 -0.1387
 1402CHOL    R215969   8.693  16.693   4.108  0.1506  0.0040 -0.0750
 1402CHOL    R315970   8.582  16.412   4.568  0.1092 -0.0398 -0.1118
 1402CHOL    R415971   8.763  16.691   4.410  0.0904  0.0014 -0.0610
 1402CHOL    R515972   8.495  16.825   4.192  0.1095 -0.0362 -0.1080
 1402CHOL    R615973   8.596  16.682   4.626  0.0484 -0.0401 -0.0948
 1402CHOL    C115974   8.862  16.548   4.824  0.0332 -0.0019 -0.0484
 1402CHOL    C215975   8.967  16.356   5.216 -0.1208  0.0390  0.0609
 1403CHOL   ROH15976  16.218  19.170   7.285  0.2111  0.2001 -0.1532
 1403CHOL    R115977  16.035  18.959   6.956 -0.0056  0.1370  0.0055
 1403CHOL    R215978  16.182  19.274   6.954  0.1650  0.0587 -0.1937
 1403CHOL    R315979  16.002  18.974   6.530 -0.1298 -0.0529  0.0074
 1403CHOL    R415980  16.206  19.257   6.646  0.0602 -0.1048 -0.1940
 1403CHOL    R515981  16.366  19.102   6.941  0.0688 -0.0475 -0.1684
 1403CHOL    R615982  16.267  19.042   6.489 -0.1046 -0.2151 -0.1095
 1403CHOL    C115983  16.104  19.200   6.212 -0.1057 -0.2618 -0.1355
 1403CHOL    C215984  15.965  19.143   5.814  0.0607 -0.2006  0.1185
 1404CHOL   ROH15985   3.931  21.905   6.942 -0.3741  0.1133 -0.1369
 1404CHOL    R115986   3.852  21.966   6.523 -0.2265 -0.0055 -0.1827
 1404CHOL    R215987   4.154  21.885   6.675 -0.2497  0.1721 -0.0389
 1404CHOL    R315988   4.030  21.903   6.139 -0.0325  0.0091 -0.0962
 1404CHOL    R415989   4.262  21.788   6.401 -0.0857  0.1729  0.0244
 1404CHOL    R515990   4.018  21.673   6.654 -0.1370  0.1005 -0.0574
 1404CHOL    R615991   4.132  21.654   6.202  0.0647  0.0709 -0.0061
 1404CHOL    C115992   4.371  21.777   5.965  0.1051  0.1437  0.0721
 1404CHOL    C215993   4.349  21.803   5.552  0.0198  0.1752  0.0429
 1405CHOL   ROH15994   6.140   0.813   3.800  0.1271  0.2131 -0.1100
 1405CHOL    R115995   6.043   1.129   4.077  0.1131  0.1275 -0.0166
 1405CHOL    R215996   6.213   0.832   4.141  0.0987  0.1017 -0.0973
 1405CHOL    R315997   6.138   1.266   4.471  0.0837 -0.0015  0.0358
 1405CHOL    R415998   6.325   0.957   4.402  0.0803  0.0148 -0.0476
 1405CHOL    R515999   6.376   0.994   4.037  0.1125  0.1303 -0.0314
 1405CHOL    R616000   6.409   1.212   4.450  0.0840 -0.0027  0.0415
 1405CHOL    C116001   6.350   1.165   4.799  0.0527 -0.1131  0.0218
 1405CHOL    C216002   6.280   1.247   5.240  0.2394 -0.1355 -0.1734
 1406CHOL   ROH16003   4.484   2.796   7.309 -0.0561  0.0412  0.2341
 1406CHOL    R116004   4.311   3.044   7.002 -0.0747  0.0141  0.2226
 1406CHOL    R216005   4.408   2.711   6.979 -0.0106  0.0325  0.2258
 1406CHOL    R316006   4.132   3.017   6.615 -0.0347 -0.0128  0.2059
 1406CHOL    R416007   4.232   2.681   6.727  0.0178  0.0038  0.2093
 1406CHOL    R516008   4.182   2.719   7.092 -0.0224 -0.0114  0.2055
 1406CHOL    R616009   3.987   2.789   6.673  0.0025 -0.0409  0.1890
 1406CHOL    C116010   4.049   2.752   6.322  0.0410 -0.0236  0.1939
 1406CHOL    C216011   3.951   2.821   5.896 -0.0045  0.0431 -0.1500
 1407CHOL   ROH16012  10.297  11.105   4.117  0.1810 -0.0889 -0.1958
 1407CHOL    R116013  10.547  11.016   4.457  0.1731 -0.0076 -0.1684
 1407CHOL    R216014  10.393  11.318   4.376  0.0417 -0.0707 -0.1579
 1407CHOL    R316015  10.662  11.178   4.836  0.0400  0.0062 -0.1335
 1407CHOL    R416016  10.430  11.411   4.669 -0.0462 -0.0849 -0.1421
 1407CHOL    R516017  10.221  11.169   4.484  0.0958 -0.1649 -0.1999
 1407CHOL    R616018  10.408  11.268   4.901 -0.0127 -0.1211 -0.1612
 1407CHOL    C116019  10.616  11.505   5.067 -0.1499 -0.0395 -0.1040
 1407CHOL    C216020  10.914  11.686   5.322  0.0755 -0.4682 -0.0257
 1408CHOL   ROH16021  20.327  15.241   6.690 -0.1519 -0.0597 -0.2095
 1408CHOL    R116022  20.351  15.313   6.265  0.0563 -0.0488 -0.1969
 1408CHOL    R216023  20.463  15.036   6.443 -0.1398 -0.1079 -0.1630
 1408CHOL    R316024  20.434  15.109   5.898  0.1192 -0.0672 -0.1727
 1408CHOL    R416025  20.470  14.874   6.179 -0.1016 -0.0976 -0.1683
 1408CHOL    R516026  20.214  15.011   6.409 -0.1374  0.0038 -0.2677
 1408CHOL    R616027  20.296  14.879   5.968 -0.0119 -0.0104 -0.2406
 1408CHOL    C116028  20.553  14.752   5.755  0.0214 -0.1133 -0.1400
 1408CHOL    C216029  20.390  14.582   5.409 -0.2970 -0.1534  0.0016
 1409CHOL   ROH16030   3.329   5.471   7.426  0.1772 -0.0641 -0.1479
 1409CHOL    R116031   3.443   5.422   7.013  0.0704 -0.0559 -0.1786
 1409CHOL    R216032   3.143   5.543   7.140  0.1337  0.0190 -0.0991
 1409CHOL    R316033   3.320   5.534   6.619  0.0144  0.0197 -0.1400
 1409CHOL    R416034   3.082   5.670   6.864  0.1088  0.0645 -0.0727
 1409CHOL    R516035   3.312   5.730   7.148  0.1901 -0.0309 -0.1179
 1409CHOL    R616036   3.252   5.793   6.689  0.1052  0.0328 -0.0983
 1409CHOL    C116037   3.024   5.724   6.422  0.0252  0.1259 -0.0546
 1409CHOL    C216038   3.014   5.555   6.037  0.3098  0.0217  0.1653
 1410CHOL   ROH16039  10.178  14.048   7.355 -0.0818 -0.0838 -0.0046
 1410CHOL    R116040  10.099  14.362   7.070 -0.0649 -0.0360  0.0431
 1410CHOL    R216041  10.283  14.071   7.023 -0.0350 -0.0125  0.0148
 1410CHOL    R316042  10.126  14.445   6.651 -0.0101  0.0456  0.0626
 1410CHOL    R416043  10.254  14.106   6.716  0.0071  0.0432  0.0170
 1410CHOL    R516044  10.039  14.012   7.003 -0.0275 -0.0282 -0.0320
 1410CHOL    R616045  10.039  14.194   6.572  0.0212  0.0535  0.0023
 1410CHOL    C116046  10.258  14.286   6.305  0.0532  0.1216  0.0516
 1410CHOL    C216047  10.356  14.454   5.913  0.0118  0.2110 -0.0910
 1411CHOL   ROH16048  26.909  15.653   7.185  0.3153  0.2994  0.0774
 1411CHOL    R116049  26.703  15.662   6.807  0.2037 -0.0199  0.1277
 1411CHOL    R216050  27.024  15.774   6.879  0.1486  0.2369 -0.0108
 1411CHOL    R316051  26.775  15.725   6.390  0.0462 -0.1631  0.0775
 1411CHOL    R416052  27.091  15.765   6.576  0.0716  0.1417 -0.0256
 1411CHOL    R516053  27.033  15.523   6.850  0.3136  0.2278  0.1044
 1411CHOL    R616054  27.013  15.584   6.387  0.1440 -0.0009  0.0798
 1411CHOL    C116055  27.067  15.828   6.132 -0.0945 -0.0808 -0.0503
 1411CHOL    C216056  27.004  15.999   5.717  0.1451  0.1847 -0.1559
 1412CHOL   ROH16057  16.774  11.338   3.885 -0.1879  0.0619 -0.0319
 1412CHOL    R116058  16.628  11.649   4.146 -0.0248  0.0902  0.0269
 1412CHOL    R216059  16.688  11.314   4.222 -0.1495  0.0560 -0.0224
 1412CHOL    R316060  16.561  11.729   4.561  0.0670  0.0671  0.0464
 1412CHOL    R416061  16.693  11.388   4.523 -0.0768  0.0176 -0.0141
 1412CHOL    R516062  16.909  11.436   4.226 -0.0990 -0.0341 -0.0389
 1412CHOL    R616063  16.795  11.609   4.646  0.0307 -0.0386 -0.0015
 1412CHOL    C116064  16.578  11.554   4.924  0.0480  0.0162  0.0228
 1412CHOL    C216065  16.643  11.855   5.206  0.3528  0.3831 -0.1417
 1413CHOL   ROH16066  12.938  27.025   4.303 -0.0693  0.2612  0.0232
 1413CHOL    R116067  12.594  27.039   4.563 -0.0228  0.0511  0.0979
 1413CHOL    R216068  12.922  27.131   4.635 -0.0695  0.2895  0.0143
 1413CHOL    R316069  12.467  27.201   4.938 -0.0537  0.0072  0.1066
 1413CHOL    R416070  12.819  27.294   4.877 -0.1305  0.2464  0.0175
 1413CHOL    R516071  12.814  27.320   4.508 -0.2308  0.1997  0.0152
 1413CHOL    R616072  12.592  27.445   4.900 -0.2323  0.0916  0.0494
 1413CHOL    C116073  12.604  27.408   5.256 -0.1271  0.1416  0.0514
 1413CHOL    C216074  12.333  27.555   5.574 -0.3089  0.0549 -0.1716
 1414CHOL   ROH16075  15.933  27.004   4.238 -0.3039 -0.2486 -0.1406
 1414CHOL    R116076  15.938  27.151   4.644 -0.2028 -0.0897 -0.1987
 1414CHOL    R216077  16.013  26.831   4.530 -0.2939 -0.1520 -0.0857
 1414CHOL    R316078  16.076  27.044   5.034 -0.1613  0.0331 -0.1791
 1414CHOL    R416079  16.161  26.775   4.797 -0.2615 -0.0801 -0.0885
 1414CHOL    R516080  16.215  26.977   4.491 -0.2674 -0.2124 -0.1775
 1414CHOL    R616081  16.318  26.942   4.946 -0.1988 -0.0561 -0.1804
 1414CHOL    C116082  16.253  26.743   5.235 -0.1954  0.0720 -0.0904
 1414CHOL    C216083  16.319  26.750   5.675 -0.2796 -0.2067  0.2009
 1415CHOL   ROH16084  18.409  10.640   6.777  0.1776 -0.0921  0.0007
 1415CHOL    R116085  18.200  10.552   6.410  0.1303 -0.0445  0.0160
 1415CHOL    R216086  18.394  10.830   6.485  0.1570 -0.0640  0.0200
 1415CHOL    R316087  18.175  10.680   6.003  0.0928 -0.0051  0.0306
 1415CHOL    R416088  18.419  10.889   6.182  0.1266 -0.0377  0.0225
 1415CHOL    R516089  18.550  10.641   6.424  0.1377 -0.0686 -0.0151
 1415CHOL    R616090  18.448  10.715   5.974  0.0917 -0.0202  0.0031
 1415CHOL    C116091  18.315  10.962   5.751  0.0827  0.0090  0.0408
 1415CHOL    C216092  18.100  11.104   5.394 -0.0363  0.2961  0.1621
 1416CHOL   ROH16093  12.472  25.343   7.255 -0.0995 -0.0624  0.0248
 1416CHOL    R116094  12.552  25.274   6.837 -0.0796  0.0529  0.0091
 1416CHOL    R216095  12.337  25.507   6.978 -0.0757  0.0235  0.0637
 1416CHOL    R316096  12.491  25.452   6.453 -0.0491  0.1657  0.0562
 1416CHOL    R416097  12.339  25.665   6.711 -0.0528  0.0996  0.1085
 1416CHOL    R516098  12.571  25.599   6.992 -0.0718  0.0078  0.1031
 1416CHOL    R616099  12.545  25.710   6.538 -0.0408  0.1386  0.1327
 1416CHOL    C116100  12.311  25.765   6.274 -0.0232  0.2258  0.1351
 1416CHOL    C216101  12.228  25.750   5.839 -0.1695  0.1545  0.1598
 1417CHOL   ROH16102  24.731  25.737   6.820 -0.3132  0.0422 -0.0342
 1417CHOL    R116103  24.870  26.061   6.571 -0.1242  0.0100  0.0280
 1417CHOL    R216104  24.921  25.719   6.528 -0.1705 -0.0011  0.0603
 1417CHOL    R316105  25.041  26.133   6.186  0.0828 -0.0314  0.1108
 1417CHOL    R416106  24.992  25.771   6.231 -0.0120 -0.0209  0.0941
 1417CHOL    R516107  24.690  25.775   6.444 -0.1182  0.0434 -0.0565
 1417CHOL    R616108  24.882  25.948   6.055  0.1110 -0.0021  0.0350
 1417CHOL    C116109  25.182  25.940   5.861  0.2070 -0.0656  0.1844
 1417CHOL    C216110  25.248  26.067   5.451 -0.2788 -0.1253 -0.0690
 1418CHOL   ROH16111  17.664   6.366   3.666 -0.2096  0.0479 -0.0575
 1418CHOL    R116112  17.599   6.678   3.956 -0.0700 -0.0007  0.0272
 1418CHOL    R216113  17.534   6.338   3.988 -0.0998  0.0008 -0.0167
 1418CHOL    R316114  17.512   6.732   4.371  0.0826 -0.0712  0.0692
 1418CHOL    R416115  17.526   6.372   4.296  0.0126 -0.0584 -0.0065
 1418CHOL    R516116  17.781   6.374   4.028 -0.0813 -0.0370 -0.0961
 1418CHOL    R616117  17.680   6.530   4.457  0.0883 -0.1086 -0.0296
 1418CHOL    C116118  17.424   6.526   4.706  0.1751 -0.1261  0.0600
 1418CHOL    C216119  17.323   6.691   5.120 -0.1479 -0.1313  0.3412
 1419CHOL   ROH16120  16.589   0.802   7.374 -0.2339 -0.0792  0.0619
 1419CHOL    R116121  16.635   0.553   7.026 -0.1843 -0.0008  0.0120
 1419CHOL    R216122  16.520   0.881   7.042 -0.1102  0.0231  0.0597
 1419CHOL    R316123  16.640   0.576   6.599 -0.0439  0.1081  0.0190
 1419CHOL    R416124  16.577   0.911   6.739 -0.0072  0.0876  0.0851
 1419CHOL    R516125  16.772   0.886   7.052 -0.1121 -0.0400  0.1408
 1419CHOL    R616126  16.784   0.812   6.591  0.0158  0.0759  0.1251
 1419CHOL    C116127  16.584   0.836   6.296  0.1142  0.2000  0.0673
 1419CHOL    C216128  16.462   0.894   5.888 -0.1681 -0.1609  0.0293
 1420CHOL   ROH16129  21.060  26.456   7.060 -0.1790 -0.1406  0.1644
 1420CHOL    R116130  21.002  26.290   6.666 -0.1561 -0.1019  0.1447
 1420CHOL    R216131  20.833  26.555   6.815 -0.0869 -0.0426  0.1179
 1420CHOL    R316132  20.808  26.376   6.295 -0.0408 -0.0116  0.1050
 1420CHOL    R416133  20.738  26.647   6.534  0.0104  0.0056  0.1005
 1420CHOL    R516134  21.053  26.642   6.728 -0.0340 -0.1240  0.1702
 1420CHOL    R616135  20.873  26.645   6.297  0.0625 -0.0367  0.1303
 1420CHOL    C116136  20.562  26.644   6.120  0.1005  0.0906  0.0612
 1420CHOL    C216137  20.320  26.670   5.754 -0.1418  0.0864  0.0652
 1421CHOL   ROH16138  18.924  19.850   4.234 -0.2138  0.1147 -0.1257
 1421CHOL    R116139  19.028  19.998   4.625 -0.0633  0.0473 -0.1393
 1421CHOL    R216140  18.817  19.734   4.545 -0.0988  0.0647 -0.1039
 1421CHOL    R316141  19.002  19.891   5.038  0.0904 -0.0215 -0.1468
 1421CHOL    R416142  18.845  19.628   4.835  0.0086  0.0154 -0.1317
 1421CHOL    R516143  19.054  19.651   4.530 -0.1053  0.0624 -0.2075
 1421CHOL    R616144  19.064  19.624   4.997  0.0701 -0.0159 -0.2148
 1421CHOL    C116145  18.851  19.609   5.283  0.1775 -0.0597 -0.1365
 1421CHOL    C216146  19.063  19.588   5.683  0.0383 -0.1725 -0.1383
 1422CHOL   ROH16147  14.180   5.450   7.255 -0.2680 -0.2382  0.1766
 1422CHOL    R116148  14.136   5.419   6.827 -0.0805 -0.0519  0.1419
 1422CHOL    R216149  13.900   5.526   7.061 -0.2009 -0.2055  0.0925
 1422CHOL    R316150  13.875   5.540   6.511  0.0293  0.0401  0.0860
 1422CHOL    R416151  13.741   5.660   6.832 -0.1310 -0.1331  0.0859
 1422CHOL    R516152  14.057   5.718   7.015 -0.2191 -0.1523  0.2465
 1422CHOL    R616153  13.832   5.794   6.612 -0.0641 -0.0140  0.1849
 1422CHOL    C116154  13.524   5.727   6.444  0.0196  0.0003  0.0234
 1422CHOL    C216155  13.357   5.855   6.040  0.0697 -0.0500  0.0446
 1423CHOL   ROH16156  22.253  15.475   6.680  0.0243 -0.0564  0.0393
 1423CHOL    R116157  22.127  15.205   6.367  0.0488 -0.1024  0.0691
 1423CHOL    R216158  22.350  15.472   6.345 -0.0528 -0.0210  0.0162
 1423CHOL    R316159  22.231  15.087   5.970 -0.0011 -0.0648  0.0447
 1423CHOL    R416160  22.461  15.351   6.082 -0.0708  0.0191 -0.0098
 1423CHOL    R516161  22.473  15.275   6.444  0.0422  0.0236 -0.0124
 1423CHOL    R616162  22.504  15.090   6.016  0.0089  0.0344 -0.0195
 1423CHOL    C116163  22.485  15.175   5.669 -0.1036  0.0273 -0.0152
 1423CHOL    C216164  22.556  14.842   5.436 -0.1716  0.0896  0.0947
 1424CHOL   ROH16165  14.441  20.222   3.952  0.0731  0.1113  0.1021
 1424CHOL    R116166  14.373  20.296   4.372  0.0085  0.0690  0.0994
 1424CHOL    R216167  14.352  19.994   4.201  0.0608  0.0814  0.0706
 1424CHOL    R316168  14.328  20.088   4.743 -0.0226  0.0331  0.0755
 1424CHOL    R416169  14.374  19.844   4.471  0.0380  0.0605  0.0609
 1424CHOL    R516170  14.595  20.040   4.248  0.0501  0.1008  0.1078
 1424CHOL    R616171  14.527  19.903   4.690  0.0024  0.0565  0.0869
 1424CHOL    C116172  14.303  19.716   4.896 -0.0081  0.0176  0.0402
 1424CHOL    C216173  14.114  19.522   5.240 -0.0085  0.0050  0.4259
 1425CHOL   ROH16174  16.937  15.307   7.066 -0.0846 -0.1060  0.1214
 1425CHOL    R116175  16.720  15.314   6.694  0.0247 -0.0656  0.0581
 1425CHOL    R216176  16.746  15.566   6.932 -0.0387 -0.0886  0.0895
 1425CHOL    R316177  16.524  15.587   6.429  0.1091 -0.0359  0.0259
 1425CHOL    R416178  16.655  15.772   6.719  0.0289 -0.0664  0.0818
 1425CHOL    R516179  16.956  15.569   6.792  0.0026 -0.0808  0.1512
 1425CHOL    R616180  16.717  15.784   6.453  0.1072 -0.0431  0.1008
 1425CHOL    C116181  16.420  15.975   6.394  0.1290 -0.0301  0.0315
 1425CHOL    C216182  16.126  16.129   6.140 -0.0157 -0.2025  0.2756
 1426CHOL   ROH16183  20.411  10.606   6.707 -0.2355 -0.0621  0.1642
 1426CHOL    R116184  20.381  10.346   6.364  0.0210 -0.0170  0.1052
 1426CHOL    R216185  20.384  10.694   6.371 -0.0819 -0.0169  0.1628
 1426CHOL    R316186  20.407  10.356   5.937  0.2453  0.0577  0.1192
 1426CHOL    R416187  20.457  10.696   6.070  0.0782  0.0516  0.2011
 1426CHOL    R516188  20.622  10.613   6.391 -0.0688  0.0482  0.2764
 1426CHOL    R616189  20.623  10.528   5.931  0.2002  0.1208  0.2618
 1426CHOL    C116190  20.452  10.611   5.628  0.3370  0.1196  0.1834
 1426CHOL    C216191  20.562  10.381   5.284  0.0073 -0.1245  0.0134
 1427CHOL   ROH16192   3.180  25.779   4.290  0.1451  0.0975  0.3001
 1427CHOL    R116193   2.883  26.001   4.511 -0.0976 -0.0131  0.0898
 1427CHOL    R216194   2.985  25.671   4.559  0.0757  0.0602  0.2352
 1427CHOL    R316195   2.654  25.980   4.871 -0.2644 -0.0437 -0.0171
 1427CHOL    R416196   2.864  25.679   4.844 -0.0701  0.0716  0.1736
 1427CHOL    R516197   3.156  25.823   4.667 -0.0667  0.1939  0.2767
 1427CHOL    R616198   2.862  25.883   5.025 -0.2811  0.1247  0.1147
 1427CHOL    C116199   2.576  25.738   5.184 -0.2743  0.0012  0.0152
 1427CHOL    C216200   2.512  25.893   5.590  0.2170 -0.0158  0.0599
 1428CHOL   ROH16201   1.883  23.094   6.848 -0.2734  0.0284 -0.0563
 1428CHOL    R116202   2.135  22.865   6.583 -0.1041  0.0537  0.0812
 1428CHOL    R216203   1.932  23.137   6.506 -0.2294 -0.0796 -0.0639
 1428CHOL    R316204   2.302  22.879   6.190 -0.0347 -0.0142  0.1079
 1428CHOL    R416205   2.093  23.177   6.244 -0.1992 -0.0990 -0.0484
 1428CHOL    R516206   2.146  23.225   6.607 -0.2938  0.0695 -0.0561
 1428CHOL    R616207   2.361  23.149   6.199 -0.1754  0.0209  0.0150
 1428CHOL    C116208   2.296  23.098   5.851 -0.0822 -0.1478  0.0215
 1428CHOL    C216209   2.344  22.956   5.446 -0.0215  0.2720 -0.4259
 1429CHOL   ROH16210   3.310  18.965   3.898  0.0421 -0.1472  0.0753
 1429CHOL    R116211   3.350  19.242   4.226 -0.1585 -0.1515  0.1050
 1429CHOL    R216212   3.140  18.966   4.202 -0.0015 -0.2685  0.0520
 1429CHOL    R316213   3.242  19.288   4.637 -0.2416 -0.2468  0.0942
 1429CHOL    R416214   3.107  18.969   4.510 -0.0463 -0.3129  0.0480
 1429CHOL    R516215   3.370  18.883   4.264  0.0370 -0.1451  0.0766
 1429CHOL    R616216   3.293  19.024   4.703 -0.1028 -0.2253  0.0782
 1429CHOL    C116217   3.030  19.110   4.930 -0.1835 -0.3912  0.0496
 1429CHOL    C216218   3.034  19.158   5.369 -0.0821  0.1457 -0.0931
 1430CHOL   ROH16219  18.952  21.415   4.440  0.1527 -0.0318  0.0541
 1430CHOL    R116220  18.746  21.328   4.809  0.0463 -0.1504 -0.0322
 1430CHOL    R216221  19.029  21.172   4.679  0.1683 -0.0146  0.0666
 1430CHOL    R316222  18.796  21.111   5.174  0.0013 -0.1540 -0.0281
 1430CHOL    R416223  19.092  21.060   4.961  0.1086 -0.0061  0.0835
 1430CHOL    R516224  19.102  21.388   4.788  0.0291  0.0110  0.1111
 1430CHOL    R616225  19.062  21.179   5.205 -0.0403 -0.0361  0.0811
 1430CHOL    C116226  19.048  20.857   5.359  0.0441 -0.0539  0.0523
 1430CHOL    C216227  18.965  20.557   5.659  0.1654  0.1941  0.1249
 1431CHOL   ROH16228   0.660  11.365   6.988 -0.1977 -0.0251  0.0079
 1431CHOL    R116229   0.640  11.628   6.647 -0.0707 -0.0751 -0.0387
 1431CHOL    R216230   0.821  11.333   6.680 -0.0852 -0.0720  0.0710
 1431CHOL    R316231   0.741  11.641   6.231  0.0814 -0.1373 -0.0045
 1431CHOL    R416232   0.845  11.317   6.372  0.0276 -0.1176  0.0816
 1431CHOL    R516233   0.582  11.273   6.628 -0.0669 -0.0774 -0.0077
 1431CHOL    R616234   0.661  11.381   6.180  0.0978 -0.1441  0.0046
 1431CHOL    C116235   0.925  11.427   5.943  0.1852 -0.1814  0.0939
 1431CHOL    C216236   1.177  11.516   5.613 -0.0553  0.3710  0.0500
 1432CHOL   ROH16237  13.712   0.494   7.389  0.2251 -0.0129  0.0476
 1432CHOL    R116238  13.868   0.509   6.988  0.1548 -0.0326  0.0192
 1432CHOL    R216239  13.652   0.274   7.125  0.1491 -0.0048  0.0578
 1432CHOL    R316240  13.808   0.336   6.601  0.0627 -0.0242  0.0296
 1432CHOL    R416241  13.570   0.188   6.839  0.0863  0.0063  0.0724
 1432CHOL    R516242  13.517   0.478   7.063  0.1643  0.0128  0.0826
 1432CHOL    R616243  13.532   0.342   6.616  0.0660  0.0116  0.0794
 1432CHOL    C116244  13.591   0.055   6.410 -0.0082  0.0043  0.0682
 1432CHOL    C216245  13.817  -0.171   6.108 -0.2271  0.0546 -0.0368
 1433CHOL   ROH16246  20.544  16.369   3.585  0.1375  0.1423 -0.0196
 1433CHOL    R116247  20.658  16.066   3.871  0.2595  0.0875 -0.1249
 1433CHOL    R216248  20.670  16.412   3.908  0.0206  0.0810  0.0347
 1433CHOL    R316249  20.754  16.020   4.285  0.1762 -0.0349 -0.1187
 1433CHOL    R416250  20.684  16.375   4.215 -0.0392 -0.0474  0.0227
 1433CHOL    R516251  20.432  16.337   3.947  0.0583 -0.0947 -0.0630
 1433CHOL    R616252  20.557  16.193   4.374  0.0368 -0.2044 -0.0936
 1433CHOL    C116253  20.810  16.234   4.623 -0.0573 -0.1479 -0.0063
 1433CHOL    C216254  20.914  16.156   5.031  0.1128 -0.3810 -0.1979
 1434CHOL   ROH16255   1.004   7.565   7.760  0.0023 -0.0403  0.0025
 1434CHOL    R116256   1.158   7.334   7.430  0.0461 -0.0095  0.0012
 1434CHOL    R216257   0.876   7.537   7.437 -0.0073 -0.0835  0.0099
 1434CHOL    R316258   1.113   7.289   7.007  0.0361 -0.0336  0.0049
 1434CHOL    R416259   0.880   7.547   7.127 -0.0258 -0.0916  0.0094
 1434CHOL    R516260   1.078   7.685   7.407 -0.0477 -0.0310 -0.0049
 1434CHOL    R616261   1.093   7.560   6.957 -0.0381 -0.0403 -0.0020
 1434CHOL    C116262   0.892   7.420   6.696 -0.0148 -0.1008  0.0125
 1434CHOL    C216263   1.049   7.283   6.318 -0.2602 -0.0418  0.1138
 1435CHOL   ROH16264   8.753  16.901   6.978 -0.2306  0.2491 -0.0192
 1435CHOL    R116265   8.612  17.074   6.609 -0.0967  0.0960 -0.1439
 1435CHOL    R216266   8.930  16.954   6.682 -0.1399  0.0683  0.0011
 1435CHOL    R316267   8.726  17.120   6.199  0.0233 -0.1284 -0.1374
 1435CHOL    R416268   8.990  16.937   6.378 -0.0611 -0.0931  0.0245
 1435CHOL    R516269   8.783  16.757   6.627 -0.1641  0.0700  0.0587
 1435CHOL    R616270   8.825  16.863   6.174 -0.0205 -0.1614  0.0161
 1435CHOL    C116271   9.029  17.046   5.944  0.0777 -0.3146 -0.0199
 1435CHOL    C216272   9.088  17.285   5.578  0.0988  0.2229 -0.3303
 1436CHOL   ROH16273  19.392  12.960   6.391  0.1627  0.1585  0.0639
 1436CHOL    R116274  19.692  12.772   6.144  0.1051 -0.0096  0.1209
 1436CHOL    R216275  19.346  12.737   6.127  0.0892  0.1659  0.0703
 1436CHOL    R316276  19.731  12.551   5.780  0.0479 -0.0515  0.1400
 1436CHOL    R416277  19.376  12.627   5.839  0.0768  0.1337  0.0813
 1436CHOL    R516278  19.409  12.953   6.011  0.2170  0.1277  0.0668
 1436CHOL    R616279  19.547  12.704   5.641  0.1469  0.0346  0.1028
 1436CHOL    C116280  19.512  12.383   5.487  0.0066  0.0430  0.1166
 1436CHOL    C216281  19.689  12.350   5.083  0.0614  0.0722  0.2829
 1437CHOL   ROH16282  11.997  18.477   5.137  0.0288 -0.0438  0.0432
 1437CHOL    R116283  12.367  18.564   5.340  0.0380 -0.0724  0.0388
 1437CHOL    R216284  12.125  18.788   5.229  0.0634 -0.0523  0.0235
 1437CHOL    R316285  12.569  18.884   5.541  0.0734 -0.0823  0.0188
 1437CHOL    R416286  12.242  19.003   5.419  0.0872 -0.0532  0.0100
 1437CHOL    R516287  12.046  18.690   5.448  0.0517 -0.0292  0.0296
 1437CHOL    R616288  12.342  18.975   5.671  0.0831 -0.0481  0.0122
 1437CHOL    C116289  12.531  19.275   5.629  0.1172 -0.0721 -0.0067
 1437CHOL    C216290  12.791  19.489   5.903 -0.1407 -0.0107  0.0586
 1438CHOL   ROH16291  25.517  23.164   6.910 -0.0042 -0.1161  0.0400
 1438CHOL    R116292  25.573  23.218   6.486  0.0204 -0.0636  0.0498
 1438CHOL    R216293  25.421  22.952   6.651 -0.0328 -0.0607  0.0054
 1438CHOL    R316294  25.442  23.059   6.111  0.0051  0.0150  0.0217
 1438CHOL    R416295  25.283  22.871   6.385 -0.0379  0.0029 -0.0115
 1438CHOL    R516296  25.254  23.141   6.637  0.0013 -0.0291  0.0273
 1438CHOL    R616297  25.178  23.030   6.189 -0.0029  0.0504  0.0082
 1438CHOL    C116298  25.217  22.764   5.954 -0.0420  0.0782 -0.0297
 1438CHOL    C216299  25.350  22.656   5.540  0.0264 -0.1034 -0.0865
 1439CHOL   ROH16300   8.676  15.679   3.569 -0.1113 -0.1646 -0.0551
 1439CHOL    R116301   8.424  15.670   3.919  0.0031 -0.1267  0.0289
 1439CHOL    R216302   8.717  15.491   3.860  0.0112 -0.0952 -0.0265
 1439CHOL    R316303   8.423  15.532   4.324  0.1549 -0.0388  0.0600
 1439CHOL    R416304   8.742  15.439   4.165  0.1177 -0.0251 -0.0228
 1439CHOL    R516305   8.781  15.724   3.932 -0.0006 -0.0696 -0.0982
 1439CHOL    R616306   8.686  15.605   4.374  0.1603  0.0120 -0.0407
 1439CHOL    C116307   8.645  15.321   4.587  0.2721  0.0520  0.0350
 1439CHOL    C216308   8.597  15.366   5.009 -0.2507 -0.0904 -0.1155
 1440CHOL   ROH16309  15.832   6.118   3.939  0.0340  0.1371 -0.0128
 1440CHOL    R116310  16.021   5.963   4.294  0.0273  0.1336 -0.0107
 1440CHOL    R216311  15.752   6.182   4.273 -0.0114  0.0859 -0.0136
 1440CHOL    R316312  15.960   5.932   4.717 -0.0092  0.0763 -0.0200
 1440CHOL    R416313  15.678   6.115   4.566 -0.0283  0.0403 -0.0283
 1440CHOL    R516314  15.665   5.948   4.236  0.0358  0.0737 -0.0479
 1440CHOL    R616315  15.690   5.875   4.697  0.0032  0.0281 -0.0532
 1440CHOL    C116316  15.708   6.048   5.009 -0.0602 -0.0025 -0.0325
 1440CHOL    C216317  15.678   6.210   5.417  0.1330  0.3824  0.0408
 1441CHOL   ROH16318   7.785  18.504   6.807 -0.1500  0.0486  0.1647
 1441CHOL    R116319   7.575  18.582   6.438  0.0554  0.0721  0.0511
 1441CHOL    R216320   7.887  18.434   6.480 -0.0070 -0.0132  0.2218
 1441CHOL    R316321   7.586  18.482   6.022  0.2342  0.0273  0.0656
 1441CHOL    R416322   7.866  18.317   6.194  0.1022 -0.0360  0.2227
 1441CHOL    R516323   7.711  18.259   6.526 -0.0800  0.0416  0.1523
 1441CHOL    R616324   7.649  18.215   6.064  0.1375  0.0134  0.1243
 1441CHOL    C116325   7.807  18.281   5.750  0.3134 -0.0630  0.1953
 1441CHOL    C216326   7.630  18.201   5.343  0.0689  0.2106  0.1309
 1442CHOL   ROH16327   3.623   6.268   3.887  0.0510  0.0727 -0.0241
 1442CHOL    R116328   3.402   6.323   4.253  0.0341  0.0097 -0.0248
 1442CHOL    R216329   3.675   6.116   4.196 -0.0098 -0.0368 -0.0673
 1442CHOL    R316330   3.426   6.238   4.672 -0.0198 -0.1274 -0.0491
 1442CHOL    R416331   3.723   6.101   4.502 -0.0380 -0.1439 -0.0677
 1442CHOL    R516332   3.761   6.350   4.231  0.0425 -0.0676  0.0134
 1442CHOL    R616333   3.696   6.296   4.691 -0.0075 -0.1967 -0.0085
 1442CHOL    C116334   3.654   6.045   4.943 -0.0867 -0.2662 -0.0903
 1442CHOL    C216335   3.368   6.010   5.248 -0.2908 -0.2041 -0.2895
 1443CHOL   ROH16336  26.250  25.073   6.741 -0.0051  0.0360  0.0490
 1443CHOL    R116337  26.551  25.218   6.469  0.1126 -0.2317  0.0332
 1443CHOL    R216338  26.222  25.128   6.398  0.0287  0.0526  0.0489
 1443CHOL    R316339  26.593  25.370   6.071  0.2293 -0.2764  0.0281
 1443CHOL    R416340  26.240  25.287   6.133  0.1567  0.0326  0.0447
 1443CHOL    R516341  26.220  25.361   6.495  0.2357  0.0584  0.0440
 1443CHOL    R616342  26.364  25.525   6.082  0.3628 -0.0750  0.0344
 1443CHOL    C116343  26.382  25.440   5.735  0.2745 -0.0993  0.0355
 1443CHOL    C216344  26.355  25.495   5.285  0.1600  0.0322  0.0019
 1444CHOL   ROH16345  20.715   0.588   7.190  0.1344 -0.0528 -0.0449
 1444CHOL    R116346  20.946   0.529   6.831  0.0759 -0.0660 -0.0804
 1444CHOL    R216347  20.606   0.595   6.859  0.0833 -0.0501 -0.0281
 1444CHOL    R316348  20.920   0.579   6.407  0.0128 -0.0679 -0.0767
 1444CHOL    R416349  20.602   0.683   6.562  0.0414 -0.0520 -0.0283
 1444CHOL    R516350  20.730   0.813   6.884  0.0975 -0.0557 -0.0488
 1444CHOL    R616351  20.790   0.823   6.421  0.0260 -0.0618 -0.0583
 1444CHOL    C116352  20.661   0.686   6.116 -0.0273 -0.0580 -0.0376
 1444CHOL    C216353  20.641   0.672   5.651 -0.0715 -0.1069 -0.0688
 1445CHOL   ROH16354  17.306   7.966   6.790 -0.1254 -0.1424  0.0004
 1445CHOL    R116355  17.074   8.011   6.429 -0.0615  0.1459 -0.0073
 1445CHOL    R216356  17.418   8.049   6.470 -0.0259 -0.1801  0.0249
 1445CHOL    R316357  17.122   8.044   6.006 -0.0018  0.1871  0.0026
 1445CHOL    R416358  17.454   8.018   6.164 -0.0342 -0.1518  0.0210
 1445CHOL    R516359  17.368   7.802   6.453 -0.2536 -0.1329 -0.0283
 1445CHOL    R616360  17.322   7.853   5.991 -0.1760  0.0035 -0.0215
 1445CHOL    C116361  17.406   8.072   5.721  0.0460 -0.0178  0.0283
 1445CHOL    C216362  17.305   8.050   5.277 -0.0779  0.0244 -0.2934
 1446CHOL   ROH16363  20.098  19.738   4.188  0.0199  0.0566 -0.0679
 1446CHOL    R116364  20.283  19.920   4.533  0.0493  0.0664 -0.0889
 1446CHOL    R216365  19.946  19.848   4.483  0.0567 -0.0163 -0.0215
 1446CHOL    R316366  20.199  20.022   4.940  0.1133 -0.0014 -0.0583
 1446CHOL    R416367  19.900  19.870   4.788  0.1191 -0.0628 -0.0085
 1446CHOL    R516368  20.062  19.635   4.553  0.1281  0.0061 -0.0711
 1446CHOL    R616369  20.060  19.789   4.994  0.1863 -0.0440 -0.0532
 1446CHOL    C116370  19.900  20.024   5.210  0.1729 -0.1101  0.0090
 1446CHOL    C216371  19.887  20.252   5.568  0.0961 -0.0738  0.0685
 1447CHOL   ROH16372   0.187  26.531   6.821 -0.1840  0.1600 -0.0516
 1447CHOL    R116373   0.205  26.482   6.393 -0.3112  0.1325 -0.0543
 1447CHOL    R216374   0.195  26.778   6.575 -0.0938  0.1464 -0.0626
 1447CHOL    R316375   0.279  26.705   6.036 -0.2602  0.0751 -0.0796
 1447CHOL    R416376   0.303  26.929   6.327 -0.0604  0.0734 -0.0929
 1447CHOL    R516377   0.432  26.692   6.580 -0.1431  0.0057 -0.1138
 1447CHOL    R616378   0.489  26.851   6.144 -0.1484 -0.0442 -0.1328
 1447CHOL    C116379   0.351  27.080   5.907 -0.0672  0.0290 -0.1097
 1447CHOL    C216380   0.292  27.120   5.492 -0.1902  0.0780  0.0987
 1448CHOL   ROH16381  18.137  24.253   7.008  0.0878 -0.0769 -0.0467
 1448CHOL    R116382  17.926  24.225   6.634  0.0865  0.0074 -0.0525
 1448CHOL    R216383  18.139  24.478   6.742  0.1158 -0.0347 -0.0112
 1448CHOL    R316384  17.914  24.403   6.245  0.1097  0.0704 -0.0245
 1448CHOL    R416385  18.171  24.571   6.448  0.1283  0.0081  0.0037
 1448CHOL    R516386  18.281  24.286   6.658  0.0937 -0.0382 -0.0407
 1448CHOL    R616387  18.189  24.421   6.220  0.1121  0.0421 -0.0200
 1448CHOL    C116388  18.077  24.702   6.028  0.1461  0.0856  0.0237
 1448CHOL    C216389  18.000  24.836   5.622  0.1372  0.0657 -0.0001
 1449CHOL   ROH16390   0.291  24.393   7.513 -0.0989 -0.0292  0.1245
 1449CHOL    R116391   0.099  24.506   7.144 -0.0335  0.0985  0.1292
 1449CHOL    R216392   0.432  24.417   7.195 -0.0733 -0.0502  0.1342
 1449CHOL    R316393   0.165  24.504   6.721 -0.0147  0.1222  0.1319
 1449CHOL    R416394   0.460  24.364   6.891 -0.0821 -0.0251  0.1289
 1449CHOL    R516395   0.295  24.205   7.182 -0.1636  0.0092  0.1017
 1449CHOL    R616396   0.281  24.252   6.718 -0.1219  0.0728  0.1067
 1449CHOL    C116397   0.445  24.415   6.445 -0.0391  0.0362  0.1344
 1449CHOL    C216398   0.572  24.715   6.118  0.0189 -0.1795  0.0640
 1450CHOL   ROH16399  22.561  23.849   5.194 -0.2296 -0.0876  0.1927
 1450CHOL    R116400  22.888  23.570   5.234 -0.1854 -0.0583  0.0373
 1450CHOL    R216401  22.736  23.760   5.483 -0.0833 -0.0711  0.1098
 1450CHOL    R316402  23.110  23.359   5.532 -0.0233 -0.0376 -0.0677
 1450CHOL    R416403  22.856  23.569   5.696  0.0359 -0.0599  0.0534
 1450CHOL    R516404  22.590  23.559   5.438 -0.0871 -0.0844  0.1802
 1450CHOL    R616405  22.889  23.298   5.687  0.0559 -0.0568  0.0388
 1450CHOL    C116406  23.148  23.323   5.932  0.1715 -0.0332 -0.0849
 1450CHOL    C216407  23.260  22.966   6.183 -0.0007  0.0071 -0.2610
 1451CHOL   ROH16408  25.711  13.003   7.370  0.0400  0.1864 -0.1233
 1451CHOL    R116409  25.893  12.781   7.047  0.0255  0.1815 -0.1282
 1451CHOL    R216410  25.554  12.825   7.115  0.0288  0.0994 -0.0563
 1451CHOL    R316411  25.793  12.597   6.674 -0.0116  0.0905 -0.0738
 1451CHOL    R416412  25.489  12.742   6.823 -0.0172  0.0320 -0.0273
 1451CHOL    R516413  25.638  13.032   6.998 -0.0557  0.1031 -0.1116
 1451CHOL    R616414  25.624  12.801   6.593 -0.0871  0.0303 -0.0690
 1451CHOL    C116415  25.478  12.514   6.436 -0.0451 -0.0369  0.0139
 1451CHOL    C216416  25.464  12.131   6.234  0.0028 -0.1338 -0.3997
 1452CHOL   ROH16417   3.749   8.544   5.252 -0.0702 -0.0310  0.0453
 1452CHOL    R116418   3.589   8.944   5.262 -0.1384 -0.0554 -0.0538
 1452CHOL    R216419   3.745   8.781   4.997  0.0267 -0.0416  0.0334
 1452CHOL    R316420   3.484   9.266   5.001 -0.0519 -0.0818 -0.1215
 1452CHOL    R416421   3.621   8.988   4.802  0.0963 -0.0684 -0.0400
 1452CHOL    R516422   3.505   8.702   5.007  0.0329 -0.0783 -0.0893
 1452CHOL    R616423   3.373   9.103   4.807  0.0751 -0.1066 -0.1743
 1452CHOL    C116424   3.498   9.377   4.613  0.1344 -0.0948 -0.1195
 1452CHOL    C216425   3.446   9.746   4.396 -0.1005  0.0618  0.1396
 1453CHOL   ROH16426  11.700  11.303   7.082 -0.0373  0.0655 -0.0621
 1453CHOL    R116427  11.666  11.370   6.657 -0.1206 -0.1480 -0.0906
 1453CHOL    R216428  11.918  11.203   6.828  0.0206  0.1178 -0.0331
 1453CHOL    R316429  11.834  11.241   6.286 -0.0496 -0.1857 -0.0456
 1453CHOL    R416430  12.003  11.068   6.563  0.1035  0.0639  0.0205
 1453CHOL    R516431  11.723  11.045   6.803  0.1371 -0.0426  0.0502
 1453CHOL    R616432  11.848  10.975   6.358  0.1577 -0.1450  0.0721
 1453CHOL    C116433  12.126  11.006   6.135  0.1184 -0.0337  0.0385
 1453CHOL    C216434  12.249  10.954   5.713 -0.0787  0.3089  0.0005
 1454CHOL   ROH16435  24.080  27.109   7.113  0.1605 -0.0782  0.0225
 1454CHOL    R116436  24.046  26.858   6.764 -0.0229 -0.0264  0.0020
 1454CHOL    R216437  24.033  27.206   6.782  0.1823 -0.0186  0.0364
 1454CHOL    R316438  24.052  26.881   6.337 -0.0536  0.0108  0.0035
 1454CHOL    R416439  24.092  27.219   6.478  0.1590 -0.0245  0.0316
 1454CHOL    R516440  24.275  27.137   6.788  0.1434 -0.1617  0.0050
 1454CHOL    R616441  24.259  27.065   6.327  0.0535 -0.1089 -0.0002
 1454CHOL    C116442  24.070  27.147   6.035  0.0710  0.0296  0.0270
 1454CHOL    C216443  24.127  27.041   5.618  0.1732 -0.0026  0.2435
 1455CHOL   ROH16444  26.075  16.944   7.118  0.1496  0.1068  0.0330
 1455CHOL    R116445  25.880  16.782   6.769  0.1163  0.1384  0.0370
 1455CHOL    R216446  26.091  17.059   6.789  0.1490  0.1135  0.0353
 1455CHOL    R316447  25.888  16.810   6.343  0.1016  0.1486  0.0374
 1455CHOL    R416448  26.137  17.041   6.484  0.1340  0.1162  0.0329
 1455CHOL    R516449  26.235  16.852   6.786  0.1247  0.0971  0.0239
 1455CHOL    R616450  26.164  16.821   6.325  0.1020  0.1172  0.0260
 1455CHOL    C116451  26.062  17.013   6.041  0.1124  0.1362  0.0353
 1455CHOL    C216452  25.890  17.120   5.635 -0.0724 -0.0255 -0.2624
 1456CHOL   ROH16453  13.423  15.851   4.046  0.1114 -0.1317 -0.0312
 1456CHOL    R116454  13.180  15.810   4.401  0.0919  0.0700 -0.0200
 1456CHOL    R216455  13.419  15.590   4.277  0.0222 -0.0512  0.0596
 1456CHOL    R316456  13.150  15.576   4.757  0.0094  0.2026  0.0612
 1456CHOL    R416457  13.434  15.456   4.556 -0.0260  0.0401  0.1066
 1456CHOL    R516458  13.539  15.774   4.400  0.0805 -0.0476 -0.0024
 1456CHOL    R616459  13.423  15.570   4.804  0.0071  0.1296  0.0672
 1456CHOL    C116460  13.316  15.258   4.942 -0.0972  0.2116  0.1738
 1456CHOL    C216461  13.170  15.013   5.307 -0.0354 -0.0239  0.0900
 1457CHOL   ROH16462   0.511  13.215   4.006 -0.0722 -0.0176  0.0478
 1457CHOL    R116463   0.540  13.377   4.405  0.1799  0.0321  0.0106
 1457CHOL    R216464   0.575  13.046   4.304 -0.1031 -0.0143  0.0564
 1457CHOL    R316465   0.671  13.270   4.798  0.2273  0.0027 -0.0130
 1457CHOL    R416466   0.720  12.984   4.571 -0.0622 -0.0765  0.0201
 1457CHOL    R516467   0.792  13.166   4.257 -0.0268 -0.1861 -0.0354
 1457CHOL    R616468   0.898  13.138   4.711  0.1002 -0.1849 -0.0644
 1457CHOL    C116469   0.815  12.959   5.010  0.0615 -0.0703 -0.0060
 1457CHOL    C216470   0.740  12.848   5.405 -0.3412 -0.1748 -0.0769
 1458CHOL   ROH16471  22.081  18.052   6.757  0.0799 -0.0725 -0.0869
 1458CHOL    R116472  22.076  17.970   6.334  0.0257 -0.0419 -0.0922
 1458CHOL    R216473  22.019  18.273   6.494  0.1164 -0.0380 -0.0668
 1458CHOL    R316474  22.074  18.171   5.956  0.0485 -0.0153 -0.0782
 1458CHOL    R416475  22.073  18.420   6.227  0.1338 -0.0332 -0.0607
 1458CHOL    R516476  22.268  18.237   6.483  0.1064 -0.1017 -0.0884
 1458CHOL    R616477  22.256  18.365   6.033  0.1046 -0.0675 -0.0787
 1458CHOL    C116478  22.056  18.540   5.794  0.1313  0.0011 -0.0511
 1458CHOL    C216479  22.200  18.648   5.379  0.4628 -0.1399  0.3830
 1459CHOL   ROH16480   7.800   4.372   6.509  0.0533 -0.3369  0.1516
 1459CHOL    R116481   7.763   4.555   6.120  0.0927 -0.2636  0.1822
 1459CHOL    R216482   7.733   4.219   6.203  0.0264 -0.2720  0.1247
 1459CHOL    R316483   7.628   4.468   5.724  0.0796 -0.1701  0.1658
 1459CHOL    R416484   7.585   4.170   5.935  0.0195 -0.1978  0.1148
 1459CHOL    R516485   7.515   4.333   6.260  0.0480 -0.2393  0.1418
 1459CHOL    R616486   7.404   4.328   5.806  0.0515 -0.1405  0.1397
 1459CHOL    C116487   7.485   4.167   5.497  0.0233 -0.1038  0.1131
 1459CHOL    C216488   7.540   4.165   5.063  0.2365 -0.1930  0.2351
 1460CHOL   ROH16489  14.479  16.322   7.337  0.0528 -0.0656  0.0728
 1460CHOL    R116490  14.307  16.400   6.949 -0.0163 -0.2327  0.0688
 1460CHOL    R216491  14.640  16.335   7.028  0.0232 -0.0483  0.0582
 1460CHOL    R316492  14.402  16.376   6.533 -0.0349 -0.2709  0.0668
 1460CHOL    R416493  14.692  16.265   6.731  0.0367 -0.0837  0.0689
 1460CHOL    R516494  14.517  16.115   7.020  0.1337 -0.1126  0.1128
 1460CHOL    R616495  14.532  16.132   6.553  0.0900 -0.2015  0.1079
 1460CHOL    C116496  14.705  16.288   6.282 -0.0085 -0.1697  0.0628
 1460CHOL    C216497  14.641  16.449   5.879  0.1297 -0.0389 -0.1567
 1461CHOL   ROH16498  21.908   3.023   4.190 -0.1143 -0.0562 -0.0103
 1461CHOL    R116499  21.688   3.040   4.561 -0.1357 -0.1043 -0.0208
 1461CHOL    R216500  22.032   3.018   4.517 -0.1317 -0.0744 -0.0040
 1461CHOL    R316501  21.747   3.101   4.980 -0.1635 -0.1352 -0.0124
 1461CHOL    R416502  22.072   3.116   4.808 -0.1550 -0.0960  0.0065
 1461CHOL    R516503  21.965   3.259   4.483 -0.1482 -0.0766  0.0127
 1461CHOL    R616504  21.932   3.304   4.947 -0.1770 -0.1183  0.0148
 1461CHOL    C116505  22.037   3.154   5.254 -0.1824 -0.1363  0.0079
 1461CHOL    C216506  22.037   3.190   5.675 -0.2124 -0.0916 -0.1841
 1462CHOL   ROH16507  18.558  23.524   7.120  0.0843 -0.1034 -0.0561
 1462CHOL    R116508  18.431  23.510   6.708 -0.0146 -0.0988 -0.0259
 1462CHOL    R216509  18.755  23.499   6.833  0.0201 -0.0174 -0.1079
 1462CHOL    R316510  18.580  23.421   6.317 -0.0861 -0.0163 -0.0722
 1462CHOL    R416511  18.852  23.382   6.563 -0.0131  0.0376 -0.1436
 1462CHOL    R516512  18.656  23.269   6.855  0.0926 -0.0489 -0.1058
 1462CHOL    R616513  18.729  23.202   6.398 -0.0018  0.0183 -0.1310
 1462CHOL    C116514  18.920  23.325   6.122 -0.1061  0.1019 -0.1667
 1462CHOL    C216515  18.918  23.279   5.718 -0.0777  0.2515 -0.0053
 1463CHOL   ROH16516  19.699  15.943   6.806  0.2655 -0.0723 -0.2355
 1463CHOL    R116517  19.688  15.625   6.515  0.0793 -0.0452 -0.2598
 1463CHOL    R216518  19.554  15.944   6.489  0.2016  0.0113 -0.2063
 1463CHOL    R316519  19.599  15.555   6.102 -0.0323  0.0236 -0.2477
 1463CHOL    R416520  19.542  15.910   6.181  0.1254  0.0409 -0.2068
 1463CHOL    R516521  19.801  15.960   6.440  0.1984 -0.0837 -0.2550
 1463CHOL    R616522  19.719  15.788   6.013  0.0430 -0.0169 -0.2528
 1463CHOL    C116523  19.459  15.740   5.773 -0.0252  0.1067 -0.2042
 1463CHOL    C216524  19.347  15.599   5.347 -0.1559  0.0828 -0.1069
 1464CHOL   ROH16525  24.521  13.549   7.268 -0.2024  0.1657  0.1184
 1464CHOL    R116526  24.347  13.785   6.952 -0.0982  0.0924  0.0052
 1464CHOL    R216527  24.568  13.518   6.924 -0.1997 -0.0064  0.1333
 1464CHOL    R316528  24.294  13.784   6.528 -0.0807 -0.0774  0.0025
 1464CHOL    R416529  24.486  13.486   6.627 -0.1995 -0.1078  0.1438
 1464CHOL    R516530  24.337  13.424   6.960 -0.2377  0.0986  0.1665
 1464CHOL    R616531  24.240  13.514   6.512 -0.1846 -0.0643  0.1218
 1464CHOL    C116532  24.396  13.578   6.197 -0.1463 -0.2654  0.0983
 1464CHOL    C216533  24.359  13.782   5.793 -0.0619  0.3955  0.2870
 1465CHOL   ROH16534  13.633  26.434   4.359  0.1833  0.1223 -0.0186
 1465CHOL    R116535  13.515  26.506   4.768  0.0175 -0.0020 -0.0434
 1465CHOL    R216536  13.767  26.297   4.651  0.1078  0.0827 -0.0021
 1465CHOL    R316537  13.650  26.442   5.169 -0.1144 -0.0674 -0.0089
 1465CHOL    R416538  13.894  26.297   4.934  0.0044  0.0436  0.0445
 1465CHOL    R516539  13.856  26.533   4.651  0.0549  0.1029  0.0870
 1465CHOL    R616540  13.915  26.501   5.114 -0.1070  0.0056  0.1017
 1465CHOL    C116541  13.944  26.263   5.379 -0.1507 -0.0516  0.0558
 1465CHOL    C216542  14.022  26.342   5.820  0.1758 -0.2356  0.1388
 1466CHOL   ROH16543  27.076  27.325   5.333  0.0987 -0.1325  0.0052
 1466CHOL    R116544  27.100  27.301   4.903  0.0191 -0.0267 -0.0056
 1466CHOL    R216545  26.869  27.149   5.114  0.0740 -0.1000  0.0024
 1466CHOL    R316546  26.872  27.174   4.564 -0.0332  0.0326  0.0073
 1466CHOL    R416547  26.681  27.107   4.872  0.0317 -0.0600  0.0282
 1466CHOL    R516548  26.799  27.389   5.081  0.0443 -0.0987  0.0734
 1466CHOL    R616549  26.632  27.273   4.660 -0.0247 -0.0136  0.0771
 1466CHOL    C116550  26.525  26.992   4.466 -0.0343  0.0225  0.0297
 1466CHOL    C216551  26.429  26.908   4.059 -0.0041  0.0585 -0.0214
 1467CHOL   ROH16552   2.762  12.065   6.859 -0.0284  0.1122  0.0793
 1467CHOL    R116553   2.855  12.026   6.440  0.0935  0.0357  0.1128
 1467CHOL    R216554   2.542  12.051   6.589  0.0503  0.0746  0.0166
 1467CHOL    R316555   2.673  12.063   6.054  0.2080 -0.0233  0.0524
 1467CHOL    R416556   2.422  12.131   6.315  0.1340  0.0322 -0.0329
 1467CHOL    R516557   2.640  12.283   6.573  0.0644  0.0679  0.0051
 1467CHOL    R616558   2.528  12.290   6.119  0.1980 -0.0060 -0.0293
 1467CHOL    C116559   2.317  12.132   5.878  0.2624 -0.0389 -0.0643
 1467CHOL    C216560   2.260  11.822   5.579  0.0919  0.2127 -0.3204
 1468CHOL   ROH16561  13.187   9.336   4.417  0.0809  0.0856  0.2256
 1468CHOL    R116562  13.027   9.208   4.797  0.0614  0.0420  0.2027
 1468CHOL    R216563  13.326   9.376   4.734  0.0687  0.0415  0.2366
 1468CHOL    R316564  13.086   9.263   5.217  0.0453 -0.0131  0.2122
 1468CHOL    R416565  13.336   9.460   5.032  0.0586  0.0035  0.2478
 1468CHOL    R516566  13.138   9.545   4.731  0.0735  0.0473  0.2501
 1468CHOL    R616567  13.132   9.535   5.198  0.0537 -0.0119  0.2487
 1468CHOL    C116568  13.330   9.444   5.481  0.0393 -0.0534  0.2455
 1468CHOL    C216569  13.314   9.070   5.714  0.1528  0.0570  0.2831
 1469CHOL   ROH16570  17.919   8.812   6.589  0.2019 -0.0535 -0.0866
 1469CHOL    R116571  18.205   8.766   6.269  0.1810 -0.0337 -0.1082
 1469CHOL    R216572  17.859   8.796   6.246  0.1825  0.0014 -0.0858
 1469CHOL    R316573  18.235   8.798   5.844  0.1616  0.0247 -0.1052
 1469CHOL    R416574  17.890   8.873   5.947  0.1740  0.0415 -0.0764
 1469CHOL    R516575  17.956   9.027   6.278  0.2052 -0.0120 -0.0576
 1469CHOL    R616576  18.081   9.027   5.828  0.1819  0.0413 -0.0642
 1469CHOL    C116577  18.012   8.868   5.515  0.1508  0.0924 -0.0837
 1469CHOL    C216578  18.186   8.999   5.119 -0.2604  0.0586  0.3239
 1470CHOL   ROH16579  13.771  20.059   7.124  0.2516 -0.0546 -0.0537
 1470CHOL    R116580  13.761  20.286   6.757 -0.0759 -0.0012 -0.0151
 1470CHOL    R216581  13.752  19.941   6.796  0.1751 -0.0152 -0.0638
 1470CHOL    R316582  13.679  20.240   6.340 -0.2439  0.0106  0.0160
 1470CHOL    R416583  13.640  19.915   6.509  0.0545 -0.0445 -0.0147
 1470CHOL    R516584  13.520  20.031   6.840  0.1339 -0.1773  0.0609
 1470CHOL    R616585  13.461  20.075   6.378 -0.1161 -0.1430  0.0951
 1470CHOL    C116586  13.589  19.960   6.064 -0.1874 -0.0075  0.0155
 1470CHOL    C216587  13.591  20.126   5.656  0.0927 -0.1800 -0.3042
 1471CHOL   ROH16588   2.626   5.225   4.244 -0.0049 -0.1039 -0.0770
 1471CHOL    R116589   2.724   5.327   4.652 -0.0723 -0.0294 -0.0793
 1471CHOL    R216590   2.687   5.010   4.512 -0.0268 -0.0553 -0.0330
 1471CHOL    R316591   2.869   5.149   5.012 -0.1107  0.0413 -0.0288
 1471CHOL    R416592   2.842   4.891   4.752 -0.0521 -0.0036  0.0094
 1471CHOL    R516593   2.917   5.095   4.452 -0.0248 -0.0468 -0.0134
 1471CHOL    R616594   3.058   4.991   4.886 -0.0795  0.0354  0.0244
 1471CHOL    C116595   2.973   4.793   5.171 -0.1052  0.0752  0.0446
 1471CHOL    C216596   2.788   4.712   5.553  0.1862 -0.1948 -0.0150
 1472CHOL   ROH16597  14.989  17.992   3.894  0.2093 -0.0314 -0.0081
 1472CHOL    R116598  14.869  17.982   4.308  0.1641  0.0422 -0.0193
 1472CHOL    R216599  15.108  17.786   4.149  0.0920 -0.0730  0.0136
 1472CHOL    R316600  14.992  17.823   4.686  0.0559  0.0048  0.0005
 1472CHOL    R416601  15.229  17.716   4.425  0.0336 -0.1143  0.0289
 1472CHOL    R516602  15.213  18.009   4.200  0.1875 -0.1172  0.0130
 1472CHOL    R616603  15.261  17.874   4.645  0.0833 -0.1178  0.0244
 1472CHOL    C116604  15.270  17.583   4.853 -0.0678 -0.1122  0.0395
 1472CHOL    C216605  15.238  17.334   5.169 -0.1997 -0.2588 -0.3854
 1473CHOL   ROH16606  23.291  21.263   4.138 -0.0646  0.1874 -0.0071
 1473CHOL    R116607  23.346  20.986   4.465 -0.0762  0.1614 -0.0272
 1473CHOL    R216608  23.483  21.304   4.427 -0.0962  0.1750  0.0155
 1473CHOL    R316609  23.497  20.970   4.864 -0.1146  0.1358 -0.0138
 1473CHOL    R416610  23.541  21.310   4.732 -0.1266  0.1513  0.0219
 1473CHOL    R516611  23.245  21.330   4.510 -0.1062  0.1498 -0.0055
 1473CHOL    R616612  23.391  21.215   4.939 -0.1400  0.1212 -0.0016
 1473CHOL    C116613  23.685  21.194   5.141 -0.1583  0.1243  0.0255
 1473CHOL    C216614  24.022  21.015   5.329  0.0836 -0.0854 -0.0478
 1474CHOL   ROH16615  19.422  27.085   3.966 -0.0232 -0.1069  0.0722
 1474CHOL    R116616  19.248  26.912   4.321 -0.0696 -0.0646  0.0701
 1474CHOL    R216617  19.490  27.161   4.300 -0.0862 -0.0482  0.0717
 1474CHOL    R316618  19.218  26.979   4.742 -0.1466  0.0004  0.0547
 1474CHOL    R416619  19.426  27.243   4.592 -0.1426 -0.0068  0.0481
 1474CHOL    R516620  19.265  27.268   4.260 -0.0880 -0.0729  0.0164
 1474CHOL    R616621  19.185  27.253   4.720 -0.1651 -0.0059  0.0056
 1474CHOL    C116622  19.352  27.222   5.035 -0.2161  0.0578  0.0390
 1474CHOL    C216623  19.435  27.066   5.436 -0.2815  0.2614 -0.4098
 1475CHOL   ROH16624  17.939  27.091   4.243  0.0182 -0.0617  0.0163
 1475CHOL    R116625  17.879  27.245   4.641 -0.0592 -0.1695  0.0469
 1475CHOL    R216626  18.079  26.979   4.542  0.0672 -0.0566 -0.0046
 1475CHOL    R316627  18.043  27.221   5.035 -0.0523 -0.1721  0.0439
 1475CHOL    R416628  18.233  27.000   4.810  0.0543 -0.0383  0.0014
 1475CHOL    R516629  18.205  27.193   4.495 -0.0319  0.0121  0.0396
 1475CHOL    R616630  18.306  27.223   4.950 -0.0516 -0.0316  0.0470
 1475CHOL    C116631  18.324  27.028   5.249  0.0362 -0.0837  0.0081
 1475CHOL    C216632  18.276  26.868   5.656 -0.0642  0.1698  0.1751
 1476CHOL   ROH16633   8.501  16.471   7.165 -0.1742 -0.0948  0.0798
 1476CHOL    R116634   8.418  16.670   6.791 -0.2207 -0.1516  0.0596
 1476CHOL    R216635   8.630  16.401   6.848 -0.1483 -0.0889  0.0891
 1476CHOL    R316636   8.472  16.622   6.370 -0.1984 -0.1759  0.0653
 1476CHOL    R416637   8.623  16.336   6.545 -0.1242 -0.1189  0.0949
 1476CHOL    R516638   8.394  16.313   6.836 -0.1242 -0.1545  0.0920
 1476CHOL    R616639   8.414  16.351   6.370 -0.1249 -0.1918  0.0889
 1476CHOL    C116640   8.645  16.378   6.099 -0.1263 -0.1540  0.0914
 1476CHOL    C216641   8.780  16.635   5.771  0.0274  0.2115  0.0010
 1477CHOL   ROH16642   8.388  23.830   4.174 -0.1325  0.1057  0.0142
 1477CHOL    R116643   8.305  23.901   4.592 -0.0728  0.0352  0.0384
 1477CHOL    R216644   8.593  23.766   4.450 -0.0283  0.2072 -0.0384
 1477CHOL    R316645   8.501  23.916   4.971  0.0112  0.1267 -0.0081
 1477CHOL    R416646   8.747  23.829   4.711 -0.0009  0.2813 -0.0723
 1477CHOL    R516647   8.604  24.016   4.425 -0.1780  0.2162 -0.0281
 1477CHOL    R616648   8.726  24.046   4.876 -0.0854  0.2614 -0.0560
 1477CHOL    C116649   8.859  23.852   5.145  0.0912  0.3222 -0.0981
 1477CHOL    C216650   8.913  24.010   5.555  0.0849 -0.0206 -0.1447
 1478CHOL   ROH16651   6.955  17.685   7.046 -0.3126  0.1249  0.1153
 1478CHOL    R116652   6.710  17.686   6.691 -0.2380  0.0976  0.0636
 1478CHOL    R216653   7.050  17.756   6.719 -0.2411  0.0879  0.1278
 1478CHOL    R316654   6.745  17.696   6.265 -0.1481  0.0529  0.0696
 1478CHOL    R416655   7.081  17.708   6.414 -0.1789  0.0558  0.1390
 1478CHOL    R516656   7.022  17.506   6.718 -0.2502  0.0889  0.1475
 1478CHOL    R616657   6.960  17.522   6.255 -0.1523  0.0440  0.1325
 1478CHOL    C116658   7.018  17.729   5.970 -0.0847  0.0129  0.1233
 1478CHOL    C216659   6.832  17.765   5.601  0.1128  0.0291  0.2815
 1479CHOL   ROH16660  26.478   7.531   7.400  0.1826  0.0818  0.2612
 1479CHOL    R116661  26.279   7.749   7.086  0.1165  0.0290  0.2663
 1479CHOL    R216662  26.522   7.502   7.055  0.1184  0.0320  0.2571
 1479CHOL    R316663  26.219   7.740   6.662  0.0367 -0.0357  0.2785
 1479CHOL    R416664  26.437   7.461   6.760  0.0638 -0.0145  0.2790
 1479CHOL    R516665  26.300   7.388   7.096  0.1295  0.0312  0.3158
 1479CHOL    R616666  26.188   7.466   6.649  0.0426 -0.0387  0.3253
 1479CHOL    C116667  26.332   7.541   6.330 -0.0197 -0.0816  0.2867
 1479CHOL    C216668  26.302   7.628   5.877  0.1970  0.0952  0.0254
 1480CHOL   ROH16669  12.774  24.191   3.947  0.0833 -0.1923 -0.0241
 1480CHOL    R116670  12.574  24.401   4.266  0.0518  0.0043 -0.1714
 1480CHOL    R216671  12.600  24.057   4.217  0.0451 -0.0265  0.0343
 1480CHOL    R316672  12.400  24.332   4.650  0.0021  0.2377 -0.1509
 1480CHOL    R416673  12.525  24.014   4.515  0.0069  0.1521  0.0520
 1480CHOL    R516674  12.815  24.138   4.321  0.0353  0.0267  0.0135
 1480CHOL    R616675  12.599  24.159   4.734 -0.0147  0.2792 -0.0239
 1480CHOL    C116676  12.312  24.036   4.910 -0.0407  0.3934  0.0139
 1480CHOL    C216677  12.002  24.022   5.249 -0.1336 -0.1775  0.1790
 1481CHOL   ROH16678  15.743  21.742   4.288 -0.1204  0.0405  0.0211
 1481CHOL    R116679  15.493  21.779   4.638 -0.1891 -0.0854 -0.0141
 1481CHOL    R216680  15.550  21.496   4.443 -0.0056 -0.0620  0.0034
 1481CHOL    R316681  15.283  21.538   4.922 -0.0949 -0.1925 -0.0342
 1481CHOL    R416682  15.446  21.320   4.675  0.0606 -0.1115 -0.0045
 1481CHOL    R516683  15.746  21.523   4.599 -0.0413  0.0526  0.0292
 1481CHOL    R616684  15.483  21.348   4.944  0.0082 -0.0813 -0.0003
 1481CHOL    C116685  15.189  21.155   5.005  0.1065 -0.2431 -0.0336
 1481CHOL    C216686  15.102  21.191   5.419  0.1712  0.4398  0.1875
 1482CHOL   ROH16687  17.601   6.038   6.452 -0.0598 -0.1508  0.0300
 1482CHOL    R116688  17.625   5.865   6.058 -0.0264 -0.0823  0.0017
 1482CHOL    R216689  17.450   6.149   6.158 -0.0586 -0.1163  0.0422
 1482CHOL    R316690  17.536   5.955   5.650 -0.0183 -0.0224  0.0132
 1482CHOL    R416691  17.435   6.239   5.862 -0.0552 -0.0680  0.0567
 1482CHOL    R516692  17.692   6.213   6.127 -0.0638 -0.0870  0.0629
 1482CHOL    R616693  17.624   6.217   5.665 -0.0451 -0.0161  0.0608
 1482CHOL    C116694  17.366   6.238   5.418 -0.0368 -0.0003  0.0536
 1482CHOL    C216695  17.254   6.138   5.012 -0.1659 -0.0835  0.2691
 1483CHOL   ROH16696  12.746  23.199   6.892 -0.0042  0.0065 -0.0901
 1483CHOL    R116697  12.731  23.101   6.472 -0.0489 -0.0539 -0.0745
 1483CHOL    R216698  12.598  23.379   6.632  0.0038 -0.0101 -0.1062
 1483CHOL    R316699  12.637  23.275   6.093 -0.0503 -0.0964 -0.0937
 1483CHOL    R416700  12.582  23.524   6.359  0.0057 -0.0485 -0.1267
 1483CHOL    R516701  12.844  23.420   6.598  0.0073 -0.0518 -0.1300
 1483CHOL    R616702  12.757  23.518   6.149 -0.0102 -0.1056 -0.1386
 1483CHOL    C116703  12.494  23.614   5.927 -0.0120 -0.0997 -0.1338
 1483CHOL    C216704  12.833  23.620   5.679 -0.3219 -0.2167  0.2569
 1484CHOL   ROH16705   9.434  23.512   4.031 -0.0194 -0.1805  0.0511
 1484CHOL    R116706   9.647  23.526   4.406 -0.1424  0.0602  0.1141
 1484CHOL    R216707   9.335  23.386   4.340 -0.0146 -0.1975  0.0457
 1484CHOL    R316708   9.640  23.355   4.798 -0.1273  0.1314  0.1456
 1484CHOL    R416709   9.359  23.220   4.601  0.0359 -0.1281  0.0854
 1484CHOL    R516710   9.512  23.223   4.264  0.1375 -0.0754  0.1314
 1484CHOL    R616711   9.579  23.100   4.710  0.0989  0.0646  0.1762
 1484CHOL    C116712   9.423  23.109   5.032 -0.0067  0.0064  0.1271
 1484CHOL    C216713   9.468  23.003   5.453 -0.0668 -0.1258 -0.1995
 1485CHOL   ROH16714  27.253   3.814   7.418 -0.0029 -0.1067  0.0007
 1485CHOL    R116715  27.153   3.930   7.015 -0.1373 -0.2946 -0.0213
 1485CHOL    R216716  27.439   3.767   7.127  0.0373  0.0213  0.0050
 1485CHOL    R316717  27.275   3.864   6.611 -0.0823 -0.2564 -0.0110
 1485CHOL    R416718  27.495   3.674   6.837  0.1229  0.0155  0.0230
 1485CHOL    R516719  27.254   3.596   7.107  0.2099 -0.1745  0.0473
 1485CHOL    R616720  27.319   3.593   6.644  0.1977 -0.2070  0.0459
 1485CHOL    C116721  27.558   3.678   6.392  0.1042 -0.0149  0.0201
 1485CHOL    C216722  27.520   3.526   5.976 -0.1217 -0.0813 -0.1707
 1486CHOL   ROH16723  24.436  22.919   6.956 -0.0199 -0.0367 -0.1300
 1486CHOL    R116724  24.753  22.937   6.664 -0.0025  0.1223 -0.1024
 1486CHOL    R216725  24.426  22.827   6.620  0.0726 -0.1005 -0.1156
 1486CHOL    R316726  24.817  22.910   6.242  0.0553  0.0934 -0.0918
 1486CHOL    R416727  24.459  22.861   6.313  0.0790 -0.1299 -0.1183
 1486CHOL    R516728  24.425  23.079   6.611 -0.0924 -0.1014 -0.1579
 1486CHOL    R616729  24.591  23.056   6.175 -0.0354 -0.0655 -0.1381
 1486CHOL    C116730  24.624  22.834   5.896  0.1368 -0.0926 -0.0980
 1486CHOL    C216731  24.715  22.665   5.486  0.0100 -0.3496 -0.0668
 1487CHOL   ROH16732  27.526  11.882   7.479  0.1229  0.0587  0.1767
 1487CHOL    R116733  27.781  12.031   7.164  0.0764 -0.0584  0.0828
 1487CHOL    R216734  27.438  11.973   7.154  0.0629  0.0031  0.1773
 1487CHOL    R316735  27.759  12.219   6.781  0.0206 -0.1394  0.0461
 1487CHOL    R416736  27.418  12.156   6.905  0.0381 -0.0484  0.1411
 1487CHOL    R516737  27.476  12.194   7.269  0.1315  0.0216  0.1192
 1487CHOL    R616738  27.551  12.388   6.850  0.0685 -0.0853  0.0581
 1487CHOL    C116739  27.493  12.337   6.501 -0.0240 -0.1522  0.0827
 1487CHOL    C216740  27.636  12.301   6.101  0.1042 -0.4515  0.1272
 1488CHOL   ROH16741  24.452   6.207   4.132  0.0587 -0.1266 -0.0336
 1488CHOL    R116742  24.269   6.417   4.461  0.0545 -0.0467 -0.0870
 1488CHOL    R216743  24.428   6.108   4.466  0.0105 -0.0685 -0.0197
 1488CHOL    R316744  24.247   6.412   4.888  0.0096  0.0265 -0.0880
 1488CHOL    R416745  24.460   6.134   4.773 -0.0176 -0.0225 -0.0206
 1488CHOL    R516746  24.606   6.288   4.470  0.0353 -0.0928 -0.0311
 1488CHOL    R616747  24.516   6.355   4.923 -0.0019 -0.0055 -0.0511
 1488CHOL    C116748  24.367   6.198   5.208 -0.0534  0.0621 -0.0404
 1488CHOL    C216749  24.230   6.226   5.612  0.0189  0.0902 -0.1692
 1489CHOL   ROH16750  13.528  18.795   7.225  0.3265  0.3453  0.0905
 1489CHOL    R116751  13.282  18.784   6.870  0.2174  0.0316  0.1728
 1489CHOL    R216752  13.594  18.933   6.911  0.1003  0.3225  0.0309
 1489CHOL    R316753  13.302  18.861   6.450  0.0100 -0.0613  0.1446
 1489CHOL    R416754  13.628  18.938   6.603 -0.0047  0.2712  0.0181
 1489CHOL    R516755  13.630  18.686   6.875  0.3093  0.3431  0.0862
 1489CHOL    R616756  13.554  18.751   6.418  0.1003  0.1547  0.0926
 1489CHOL    C116757  13.550  19.004   6.166 -0.2090  0.0863  0.0247
 1489CHOL    C216758  13.597  18.993   5.715  0.1002 -0.1208 -0.1512
 1490CHOL   ROH16759   1.733  13.105   6.846  0.2692  0.3249  0.0631
 1490CHOL    R116760   1.380  13.048   6.604  0.3521 -0.0190  0.0176
 1490CHOL    R216761   1.655  13.251   6.538  0.1233  0.3283  0.1009
 1490CHOL    R316762   1.231  13.125   6.211  0.2938 -0.0745  0.0287
 1490CHOL    R416763   1.573  13.259   6.240  0.1384  0.3214  0.0966
 1490CHOL    R516764   1.716  13.013   6.477  0.4087  0.4151  0.0335
 1490CHOL    R616765   1.468  13.060   6.084  0.3839  0.2426  0.0278
 1490CHOL    C116766   1.329  13.307   5.865  0.1104  0.1492  0.0917
 1490CHOL    C216767   1.118  13.285   5.472  0.3775  0.0170 -0.1499
 1491CHOL   ROH16768   4.424   9.978   6.761  0.1289  0.0711  0.0197
 1491CHOL    R116769   4.303  10.206   6.416  0.0854  0.0369  0.0122
 1491CHOL    R216770   4.597  10.026   6.462  0.0837  0.0275 -0.0136
 1491CHOL    R316771   4.407  10.268   6.005  0.0233 -0.0163 -0.0118
 1491CHOL    R416772   4.641  10.026   6.155  0.0349 -0.0106 -0.0207
 1491CHOL    R516773   4.415   9.863   6.399  0.0654  0.0292  0.0345
 1491CHOL    R616774   4.458  10.001   5.954  0.0016 -0.0249  0.0113
 1491CHOL    C116775   4.683  10.165   5.730 -0.0258 -0.0624 -0.0437
 1491CHOL    C216776   4.431  10.093   5.391  0.3748  0.3681 -0.1579
 1492CHOL   ROH16777  15.601   0.831   7.357  0.1778 -0.0966  0.0394
 1492CHOL    R116778  15.677   0.714   6.949  0.0994 -0.0089 -0.0008
 1492CHOL    R216779  15.454   0.954   7.066  0.0530 -0.1003  0.1002
 1492CHOL    R316780  15.602   0.841   6.548 -0.0582  0.0280  0.0399
 1492CHOL    R416781  15.444   1.077   6.782 -0.0695 -0.0596  0.1214
 1492CHOL    R516782  15.685   1.056   7.063  0.0186 -0.0236  0.0493
 1492CHOL    R616783  15.646   1.109   6.600 -0.1319  0.0348  0.0680
 1492CHOL    C116784  15.404   1.122   6.337 -0.2124 -0.0044  0.1393
 1492CHOL    C216785  15.539   1.207   5.928 -0.0084 -0.3429  0.4931
 1493CHOL   ROH16786  10.608  23.899   3.793  0.0626  0.0621 -0.0287
 1493CHOL    R116787  10.720  23.564   4.041 -0.0849 -0.0179 -0.0683
 1493CHOL    R216788  10.588  23.870   4.140  0.1064  0.0530 -0.0269
 1493CHOL    R316789  10.677  23.417   4.441 -0.0996 -0.0172 -0.0696
 1493CHOL    R416790  10.508  23.743   4.412  0.0806  0.0820 -0.0208
 1493CHOL    R516791  10.398  23.725   4.059  0.0089  0.1656 -0.0029
 1493CHOL    R616792  10.412  23.493   4.464 -0.0533  0.1330 -0.0193
 1493CHOL    C116793  10.528  23.520   4.801  0.0207  0.0470 -0.0376
 1493CHOL    C216794  10.740  23.478   5.196 -0.1379 -0.2813  0.1174
 1494CHOL   ROH16795   4.789  12.306   7.005  0.0763 -0.0734 -0.1083
 1494CHOL    R116796   5.039  12.181   6.677  0.0733 -0.0509 -0.1192
 1494CHOL    R216797   4.711  12.297   6.666  0.0694 -0.0609 -0.1071
 1494CHOL    R316798   5.057  12.194   6.250  0.0638 -0.0315 -0.1190
 1494CHOL    R416799   4.747  12.356   6.363  0.0610 -0.0464 -0.1053
 1494CHOL    R516800   4.864  12.497   6.685  0.0634 -0.0569 -0.1015
 1494CHOL    R616801   4.964  12.454   6.231  0.0551 -0.0336 -0.1056
 1494CHOL    C116802   4.844  12.308   5.927  0.0533 -0.0240 -0.1094
 1494CHOL    C216803   4.984  12.372   5.535 -0.0471  0.2459  0.1029
 1495CHOL   ROH16804   0.326  12.667   3.951 -0.0897 -0.2206 -0.0204
 1495CHOL    R116805   0.635  12.579   4.239 -0.0104  0.0351 -0.0246
 1495CHOL    R216806   0.316  12.706   4.297 -0.0961 -0.1758 -0.0256
 1495CHOL    R316807   0.692  12.534   4.661  0.0460  0.1374 -0.0208
 1495CHOL    R416808   0.340  12.621   4.594 -0.0198 -0.1149 -0.0140
 1495CHOL    R516809   0.296  12.457   4.266  0.0742 -0.1956  0.0131
 1495CHOL    R616810   0.454  12.397   4.701  0.1415 -0.0211  0.0132
 1495CHOL    C116811   0.497  12.569   5.012  0.0415  0.0557 -0.0150
 1495CHOL    C216812   0.660  12.314   5.286  0.0686 -0.0355  0.2774
 1496CHOL   ROH16813  23.562  11.788   4.167 -0.1312 -0.2436 -0.1693
 1496CHOL    R116814  23.752  11.574   4.491 -0.0320 -0.0467 -0.0957
 1496CHOL    R216815  23.475  11.784   4.505 -0.1540 -0.2002 -0.1747
 1496CHOL    R316816  23.685  11.461   4.898  0.0026  0.0276 -0.0692
 1496CHOL    R416817  23.399  11.659   4.778 -0.1029 -0.1682 -0.1457
 1496CHOL    R516818  23.398  11.559   4.422 -0.0194 -0.2682 -0.1183
 1496CHOL    R616819  23.418  11.400   4.861  0.0394 -0.1355 -0.0726
 1496CHOL    C116820  23.424  11.510   5.201 -0.0482 -0.0372 -0.1023
 1496CHOL    C216821  23.463  11.477   5.643  0.0878 -0.1717  0.1045
 1497CHOL   ROH16822  26.401  18.930   4.118 -0.0358  0.0599  0.1684
 1497CHOL    R116823  26.536  18.530   4.208 -0.1297 -0.0067  0.0170
 1497CHOL    R216824  26.370  18.754   4.417  0.0536  0.0086  0.1479
 1497CHOL    R316825  26.490  18.223   4.503 -0.0882 -0.0524 -0.0239
 1497CHOL    R416826  26.292  18.517   4.602  0.0639 -0.0028  0.1379
 1497CHOL    R516827  26.199  18.645   4.267 -0.0606  0.0998  0.2111
 1497CHOL    R616828  26.218  18.263   4.536 -0.0587  0.0367  0.1214
 1497CHOL    C116829  26.318  18.151   4.860  0.0660 -0.0658  0.0485
 1497CHOL    C216830  26.418  17.839   5.161 -0.0616  0.1866 -0.1251
 1498CHOL   ROH16831   7.045   5.635   7.007  0.0250 -0.0064 -0.0296
 1498CHOL    R116832   6.815   5.652   6.643 -0.0218 -0.0891 -0.0042
 1498CHOL    R216833   7.142   5.541   6.685  0.0322  0.0526 -0.0447
 1498CHOL    R316834   6.821   5.511   6.239 -0.0024 -0.0660 -0.0120
 1498CHOL    R416835   7.123   5.393   6.414  0.0686  0.0579 -0.0501
 1498CHOL    R516836   6.987   5.355   6.756  0.1213 -0.0198 -0.0375
 1498CHOL    R616837   6.912   5.258   6.305  0.1162 -0.0296 -0.0346
 1498CHOL    C116838   7.051   5.306   5.979  0.0607  0.0484 -0.0470
 1498CHOL    C216839   6.977   5.171   5.556 -0.3458 -0.1852  0.1693
 1499CHOL   ROH16840   1.706  15.673   6.930  0.0231  0.0226 -0.0149
 1499CHOL    R116841   1.468  15.563   6.588  0.1076 -0.1581 -0.0169
 1499CHOL    R216842   1.715  15.807   6.609 -0.0725  0.0266 -0.0162
 1499CHOL    R316843   1.451  15.619   6.164  0.0712 -0.1754 -0.0178
 1499CHOL    R416844   1.738  15.805   6.300 -0.0670  0.0403 -0.0159
 1499CHOL    R516845   1.829  15.583   6.582  0.0945  0.1094 -0.0124
 1499CHOL    R616846   1.724  15.595   6.126  0.0914  0.0268 -0.0139
 1499CHOL    C116847   1.631  15.819   5.864 -0.0718 -0.0436 -0.0174
 1499CHOL    C216848   1.535  15.954   5.484 -0.1326  0.0046  0.0818
 1500CHOL   ROH16849  12.131   5.141   7.053 -0.2807 -0.0855 -0.0335
 1500CHOL    R116850  12.089   4.906   6.694 -0.0589 -0.1039 -0.0486
 1500CHOL    R216851  12.142   5.249   6.722 -0.2376 -0.0769 -0.0293
 1500CHOL    R316852  12.149   4.933   6.271  0.0515 -0.0708 -0.0312
 1500CHOL    R416853  12.238   5.254   6.427 -0.1538 -0.0268 -0.0015
 1500CHOL    R516854  12.364   5.133   6.754 -0.1882  0.0330  0.0343
 1500CHOL    R616855  12.388   5.071   6.291 -0.0223  0.0484  0.0401
 1500CHOL    C116856  12.254   5.194   5.982  0.0065 -0.0153  0.0022
 1500CHOL    C216857  12.292   4.978   5.618 -0.1816  0.1209 -0.0227
 1501CHOL   ROH16858   8.267  18.038   3.929 -0.2272  0.2820 -0.0811
 1501CHOL    R116859   8.357  18.132   4.341  0.1371  0.0321 -0.0981
 1501CHOL    R216860   8.209  17.844   4.213 -0.1267  0.1778 -0.1310
 1501CHOL    R316861   8.382  17.948   4.726  0.3197 -0.1697 -0.2049
 1501CHOL    R416862   8.280  17.697   4.477 -0.0134  0.0090 -0.2536
 1501CHOL    R516863   8.459  17.826   4.180 -0.1603  0.0481 -0.3261
 1501CHOL    R616864   8.503  17.717   4.632  0.1172 -0.1966 -0.4090
 1501CHOL    C116865   8.318  17.597   4.913  0.2570 -0.2243 -0.3276
 1501CHOL    C216866   8.275  17.531   5.343 -0.1302 -0.0144 -0.0572
 1502CHOL   ROH16867  10.491  23.535   7.295 -0.2622 -0.1677 -0.1075
 1502CHOL    R116868  10.256  23.790   7.039 -0.1545  0.0764  0.0327
 1502CHOL    R216869  10.595  23.716   7.016 -0.1940 -0.0907 -0.0326
 1502CHOL    R316870  10.275  23.989   6.661 -0.0865  0.2437  0.1236
 1502CHOL    R416871  10.592  23.812   6.721 -0.1721  0.0489  0.0120
 1502CHOL    R516872  10.467  23.523   6.916 -0.3044  0.0221 -0.1115
 1502CHOL    R616873  10.400  23.779   6.531 -0.2080  0.2385  0.0137
 1502CHOL    C116874  10.527  24.064   6.355 -0.0762  0.2557  0.1349
 1502CHOL    C216875  10.488  24.313   6.035 -0.2284 -0.2547 -0.0383
 1503CHOL   ROH16876  10.686   2.743   3.844 -0.0080  0.1519  0.0073
 1503CHOL    R116877  10.796   2.445   4.136  0.1527  0.0700 -0.1351
 1503CHOL    R216878  10.760   2.788   4.182 -0.0839  0.0239  0.0416
 1503CHOL    R316879  10.839   2.394   4.558  0.1295 -0.1237 -0.1551
 1503CHOL    R416880  10.737   2.740   4.487 -0.0937 -0.1528  0.0144
 1503CHOL    R516881  10.530   2.684   4.185 -0.0156 -0.1333 -0.0431
 1503CHOL    R616882  10.612   2.538   4.622  0.0229 -0.3091 -0.1081
 1503CHOL    C116883  10.822   2.599   4.905 -0.0553 -0.3167 -0.0481
 1503CHOL    C216884  10.952   2.510   5.295  0.0622 -0.1761  0.2954
 1504CHOL   ROH16885  19.697   3.162   7.094  0.3149  0.2839 -0.0578
 1504CHOL    R116886  19.837   2.969   6.735 -0.0461  0.0242 -0.0647
 1504CHOL    R216887  19.573   3.192   6.769  0.2229  0.3431 -0.0176
 1504CHOL    R316888  19.797   2.989   6.309 -0.1874 -0.0400 -0.0549
 1504CHOL    R416889  19.583   3.245   6.464  0.1672  0.2520 -0.0357
 1504CHOL    R516890  19.787   3.325   6.763  0.3781  0.0949 -0.1352
 1504CHOL    R616891  19.800   3.265   6.299  0.1299 -0.0422 -0.1261
 1504CHOL    C116892  19.593   3.182   6.020 -0.0783  0.1227 -0.0246
 1504CHOL    C216893  19.834   3.116   5.668 -0.2547 -0.2080 -0.2151
 1505CHOL   ROH16894   1.642  25.726   7.579 -0.1556  0.0844 -0.0809
 1505CHOL    R116895   1.583  25.438   7.264 -0.1925  0.0062 -0.0027
 1505CHOL    R216896   1.629  25.781   7.235 -0.1327 -0.0094 -0.0971
 1505CHOL    R316897   1.614  25.399   6.839 -0.1824 -0.1178  0.0090
 1505CHOL    R416898   1.705  25.742   6.937 -0.1277 -0.1058 -0.0834
 1505CHOL    R516899   1.855  25.675   7.268 -0.1521 -0.0387 -0.0586
 1505CHOL    R616900   1.850  25.542   6.820 -0.1571 -0.1633 -0.0221
 1505CHOL    C116901   1.693  25.613   6.506 -0.1327 -0.2240 -0.0481
 1505CHOL    C216902   1.737  25.493   6.080 -0.2479  0.2162 -0.2097
 1506CHOL   ROH16903   1.234  25.558   4.194 -0.0416  0.0937  0.1394
 1506CHOL    R116904   1.310  25.207   4.433 -0.0832  0.0220  0.0477
 1506CHOL    R216905   1.335  25.540   4.528 -0.0242 -0.0052  0.1292
 1506CHOL    R316906   1.370  25.088   4.840 -0.0775 -0.0887  0.0150
 1506CHOL    R416907   1.323  25.453   4.825 -0.0202 -0.0772  0.1085
 1506CHOL    R516908   1.092  25.475   4.537 -0.0341  0.0314  0.1275
 1506CHOL    R616909   1.175  25.256   4.942 -0.0447 -0.0827  0.0683
 1506CHOL    C116910   1.409  25.240   5.211 -0.0309 -0.1871  0.0507
 1506CHOL    C216911   1.266  25.092   5.617 -0.3039  0.0798  0.0390
 1507CHOL   ROH16912   6.028   4.524   3.594  0.0103  0.0020 -0.1218
 1507CHOL    R116913   6.191   4.783   3.897 -0.0211  0.0471 -0.1434
 1507CHOL    R216914   6.186   4.435   3.892  0.0204  0.0459 -0.1141
 1507CHOL    R316915   6.445   4.773   4.241 -0.0204  0.1063 -0.1421
 1507CHOL    R416916   6.412   4.433   4.104  0.0205  0.0907 -0.1136
 1507CHOL    R516917   6.376   4.513   3.745  0.0114  0.0563 -0.1204
 1507CHOL    R616918   6.628   4.598   4.130  0.0008  0.1187 -0.1271
 1507CHOL    C116919   6.648   4.517   4.477  0.0100  0.1503 -0.1203
 1507CHOL    C216920   6.885   4.724   4.788  0.0501  0.0606 -0.0528
 1508CHOL   ROH16921   8.571  20.443   7.552 -0.0359  0.1475 -0.0124
 1508CHOL    R116922   8.352  20.233   7.246 -0.1326  0.1885  0.0285
 1508CHOL    R216923   8.625  20.445   7.208 -0.0158  0.0325 -0.0105
 1508CHOL    R316924   8.378  20.127   6.832 -0.1671  0.0708  0.0561
 1508CHOL    R416925   8.674  20.325   6.926 -0.0649 -0.0647  0.0220
 1508CHOL    R516926   8.711  20.219   7.279 -0.1412  0.0031  0.0507
 1508CHOL    R616927   8.648  20.067   6.841 -0.1994 -0.0727  0.0852
 1508CHOL    C116928   8.608  20.182   6.505 -0.1190 -0.1346  0.0539
 1508CHOL    C216929   8.452  20.050   6.136  0.1473 -0.0425  0.3482
 1509CHOL   ROH16930  11.874  15.750   3.999 -0.0508  0.0779 -0.0311
 1509CHOL    R116931  11.950  16.090   4.253 -0.0327  0.0234  0.0369
 1509CHOL    R216932  11.734  15.824   4.310 -0.0452  0.0222 -0.0152
 1509CHOL    R316933  11.883  16.229   4.652 -0.0232 -0.0534  0.0652
 1509CHOL    R416934  11.732  15.896   4.612 -0.0396 -0.0380 -0.0006
 1509CHOL    R516935  11.968  15.748   4.367 -0.0484 -0.0005 -0.0318
 1509CHOL    R616936  11.936  15.984   4.770 -0.0342 -0.0796  0.0158
 1509CHOL    C116937  11.698  16.127   4.995 -0.0257 -0.1132  0.0462
 1509CHOL    C216938  11.528  16.458   5.210 -0.1425  0.0024 -0.1182
 1510CHOL   ROH16939  25.273   7.004   7.233 -0.0822  0.0053 -0.1432
 1510CHOL    R116940  25.228   6.996   6.804 -0.0272 -0.0518 -0.1480
 1510CHOL    R216941  25.505   7.096   6.989 -0.0332 -0.0732 -0.1270
 1510CHOL    R316942  25.459   7.024   6.445  0.0254 -0.1478 -0.1223
 1510CHOL    R416943  25.681   7.063   6.736 -0.0060 -0.1432 -0.0989
 1510CHOL    R516944  25.506   6.844   6.979 -0.0771 -0.0752 -0.0884
 1510CHOL    R616945  25.669   6.872   6.541 -0.0143 -0.1709 -0.0714
 1510CHOL    C116946  25.833   7.095   6.315  0.0553 -0.2347 -0.0840
 1510CHOL    C216947  25.977   7.260   5.929  0.2828  0.2319  0.0766
 1511CHOL   ROH16948  27.493  24.111   7.325 -0.1043 -0.2900  0.0420
 1511CHOL    R116949  27.666  24.012   6.942 -0.0643  0.0464 -0.0299
 1511CHOL    R216950  27.331  24.065   7.020 -0.0934 -0.2037  0.0229
 1511CHOL    R316951  27.566  23.999   6.527 -0.0791  0.2381 -0.0332
 1511CHOL    R416952  27.272  24.109   6.719 -0.1367 -0.0563  0.0523
 1511CHOL    R516953  27.441  24.290   6.994 -0.2314 -0.1192  0.1527
 1511CHOL    R616954  27.423  24.236   6.530 -0.2236  0.1510  0.1193
 1511CHOL    C116955  27.256  24.051   6.274 -0.1254  0.2040  0.0162
 1511CHOL    C216956  27.347  24.024   5.863 -0.1074  0.1127  0.1779
 1512CHOL   ROH16957   8.896  20.982   6.160  0.2280  0.0710 -0.0415
 1512CHOL    R116958   9.020  20.702   5.856  0.0457 -0.2739  0.1941
 1512CHOL    R216959   8.717  20.872   5.882  0.2041  0.0522 -0.0188
 1512CHOL    R316960   8.907  20.562   5.468  0.0274 -0.4371  0.2574
 1512CHOL    R416961   8.664  20.814   5.582  0.2411 -0.1073  0.0044
 1512CHOL    R516962   8.887  21.030   5.784  0.3964 -0.1863 -0.0810
 1512CHOL    R616963   8.839  20.813   5.372  0.3086 -0.4321  0.0571
 1512CHOL    C116964   8.617  20.599   5.190  0.1499 -0.3412  0.1412
 1512CHOL    C216965   8.580  20.345   4.844  0.1592  0.1235 -0.2031
 1513CHOL   ROH16966  18.956  15.949   5.857  0.0005 -0.0111 -0.1085
 1513CHOL    R116967  18.728  16.022   5.498 -0.0214  0.0093 -0.0905
 1513CHOL    R216968  18.990  15.798   5.544  0.0346  0.0641 -0.1412
 1513CHOL    R316969  18.656  15.855   5.111  0.0157  0.0738 -0.1255
 1513CHOL    R416970  18.900  15.646   5.290  0.0696  0.0958 -0.1728
 1513CHOL    R516971  18.781  15.693   5.637  0.0615 -0.0079 -0.1612
 1513CHOL    R616972  18.648  15.593   5.200  0.0817  0.0524 -0.1812
 1513CHOL    C116973  18.775  15.555   4.868  0.0874  0.1547 -0.1908
 1513CHOL    C216974  18.638  15.476   4.451 -0.2418 -0.0815 -0.2052
 1514CHOL   ROH16975  20.931  27.351   6.985 -0.1250 -0.0798 -0.0426
 1514CHOL    R116976  20.929  27.054   6.672  0.0248 -0.0569 -0.0659
 1514CHOL    R216977  20.779  27.368   6.671 -0.0574 -0.0960 -0.0765
 1514CHOL    R316978  20.834  27.009   6.257  0.1318 -0.0507 -0.0916
 1514CHOL    R416979  20.761  27.354   6.362  0.0176 -0.0774 -0.0819
 1514CHOL    R516980  21.024  27.399   6.619 -0.0531 -0.0281 -0.0178
 1514CHOL    R616981  20.940  27.253   6.183  0.0855 -0.0172 -0.0485
 1514CHOL    C116982  20.676  27.210   5.945  0.1512 -0.0682 -0.1127
 1514CHOL    C216983  20.616  27.044   5.554 -0.2301 -0.1683 -0.0043
 1515CHOL   ROH16984  11.346   5.703   7.239  0.1894  0.1353  0.0396
 1515CHOL    R116985  11.138   5.687   6.861  0.1451  0.0229  0.0685
 1515CHOL    R216986  11.437   5.849   6.935  0.0977  0.1371  0.0126
 1515CHOL    R316987  11.197   5.771   6.446  0.0603  0.0019  0.0520
 1515CHOL    R416988  11.502   5.859   6.632  0.0541  0.1296  0.0030
 1515CHOL    R516989  11.488   5.604   6.900  0.1803  0.1512  0.0310
 1515CHOL    R616990  11.456   5.672   6.439  0.0951  0.0931  0.0282
 1515CHOL    C116991  11.466   5.928   6.190 -0.0291  0.0720  0.0005
 1515CHOL    C216992  11.362   6.115   5.804 -0.0934 -0.1366 -0.1456
 1516CHOL   ROH16993  11.962  16.803   7.326 -0.0459  0.0859 -0.0605
 1516CHOL    R116994  11.810  17.003   6.975 -0.1102  0.0338 -0.0627
 1516CHOL    R216995  12.055  16.756   6.993 -0.0658  0.0772 -0.0648
 1516CHOL    R316996  11.812  16.972   6.549 -0.1409  0.0022 -0.0606
 1516CHOL    R416997  12.013  16.699   6.691 -0.0815  0.0475 -0.0571
 1516CHOL    R516998  11.829  16.644   7.008 -0.0454  0.0392 -0.0373
 1516CHOL    R616999  11.782  16.697   6.546 -0.0937 -0.0033 -0.0374
 1516CHOL    C117000  11.971  16.756   6.248 -0.1290  0.0070 -0.0578
 1516CHOL    C217001  11.907  16.820   5.825 -0.0204  0.1253 -0.0068
 1517CHOL   ROH17002   7.939  10.816   6.968  0.3771  0.4594 -0.1732
 1517CHOL    R117003   7.796  10.856   6.563  0.1342  0.0348 -0.1349
 1517CHOL    R217004   8.098  10.723   6.672  0.2597  0.2775 -0.1807
 1517CHOL    R317005   7.881  10.722   6.166 -0.0196 -0.2720 -0.0682
 1517CHOL    R417006   8.130  10.582   6.398  0.1772  0.0520 -0.0768
 1517CHOL    R517007   7.921  10.546   6.701  0.3601  0.2137  0.0714
 1517CHOL    R617008   7.941  10.463   6.241  0.1475 -0.1794  0.1289
 1517CHOL    C117009   8.150  10.508   5.955 -0.0309 -0.3264 -0.0276
 1517CHOL    C217010   8.152  10.601   5.525  0.0095 -0.3594 -0.0537
 1518CHOL   ROH17011  24.387  10.148   5.530 -0.2895  0.0361  0.0790
 1518CHOL    R117012  24.551  10.419   5.823 -0.1958  0.0290  0.0334
 1518CHOL    R217013  24.537  10.459   5.478 -0.1556 -0.0372  0.0241
 1518CHOL    R317014  24.688  10.823   5.862 -0.0290 -0.0195 -0.0417
 1518CHOL    R417015  24.583  10.763   5.515 -0.0304 -0.0481 -0.0365
 1518CHOL    R517016  24.311  10.518   5.572 -0.1373  0.0775 -0.0035
 1518CHOL    R617017  24.486  10.930   5.707  0.0264  0.0332 -0.0779
 1518CHOL    C117018  24.756  11.156   5.646  0.1258 -0.0926 -0.1069
 1518CHOL    C217019  24.849  11.580   5.670  0.1712 -0.1322  0.0135
 1519CHOL   ROH17020  14.143  17.434   3.949 -0.0788 -0.2429 -0.0590
 1519CHOL    R117021  14.440  17.183   4.136 -0.0047 -0.1232 -0.0150
 1519CHOL    R217022  14.252  17.437   4.280 -0.0857 -0.1586 -0.0574
 1519CHOL    R317023  14.586  17.073   4.522  0.0223 -0.0189  0.0046
 1519CHOL    R417024  14.317  17.321   4.560 -0.0548 -0.0957 -0.0383
 1519CHOL    R517025  14.107  17.231   4.268 -0.0221 -0.2051 -0.0285
 1519CHOL    R617026  14.336  17.060   4.639  0.0240 -0.0782  0.0020
 1519CHOL    C117027  14.542  17.160   4.914 -0.0111  0.0275 -0.0093
 1519CHOL    C217028  14.765  17.261   5.249 -0.1042 -0.1158  0.1451
 1520CHOL   ROH17029  21.692   9.202   6.838 -0.1370  0.0380  0.0929
 1520CHOL    R117030  21.415   9.106   6.522  0.0435 -0.1571 -0.0083
 1520CHOL    R217031  21.698   9.308   6.506 -0.1942  0.1975  0.1419
 1520CHOL    R317032  21.375   9.131   6.097  0.1035 -0.0129 -0.0059
 1520CHOL    R417033  21.697   9.278   6.198 -0.0922  0.3356  0.1274
 1520CHOL    R517034  21.773   9.067   6.492  0.1019  0.2911  0.0469
 1520CHOL    R617035  21.637   9.060   6.045  0.2048  0.3287  0.0148
 1520CHOL    C117036  21.561   9.275   5.769  0.0019  0.3645  0.0970
 1520CHOL    C217037  21.421   9.530   5.454  0.0921 -0.2328  0.2314
 1521CHOL   ROH17038   8.984  25.600   4.674 -0.1651 -0.1794  0.0745
 1521CHOL    R117039   8.874  26.007   4.767 -0.0712 -0.1359 -0.0033
 1521CHOL    R217040   8.894  25.734   4.983 -0.1992 -0.1142  0.0365
 1521CHOL    R317041   8.815  26.266   5.102 -0.0758 -0.0759 -0.0502
 1521CHOL    R417042   8.906  25.930   5.223 -0.1995 -0.0869  0.0143
 1521CHOL    R517043   9.127  25.822   4.946 -0.1653 -0.1856  0.0796
 1521CHOL    R617044   9.033  26.171   5.243 -0.1356 -0.1204  0.0130
 1521CHOL    C117045   8.809  26.266   5.506 -0.1702 -0.0230 -0.0513
 1521CHOL    C217046   8.623  26.605   5.710  0.2834 -0.1004 -0.1305
 1522CHOL   ROH17047  11.642  16.075   7.136 -0.1905  0.0990 -0.0130
 1522CHOL    R117048  11.874  16.281   6.835 -0.0544  0.0479  0.0559
 1522CHOL    R217049  11.635  16.032   6.789 -0.0703  0.0755 -0.0132
 1522CHOL    R317050  11.889  16.342   6.412  0.1072  0.0163  0.0566
 1522CHOL    R417051  11.609  16.117   6.492  0.0486  0.0581 -0.0290
 1522CHOL    R517052  11.514  16.251   6.824 -0.0548  0.0937 -0.0726
 1522CHOL    R617053  11.615  16.367   6.383  0.1208  0.0496 -0.0447
 1522CHOL    C117054  11.713  16.226   6.069  0.2168  0.0148  0.0002
 1522CHOL    C217055  11.754  16.270   5.627  0.3103  0.2652  0.1301
 1523CHOL   ROH17056  14.248  23.771   7.025  0.3185  0.1378 -0.0646
 1523CHOL    R117057  14.366  23.487   6.723  0.1416  0.0405 -0.0440
 1523CHOL    R217058  14.163  23.768   6.687  0.2374  0.1104 -0.0443
 1523CHOL    R317059  14.369  23.435   6.299  0.0225 -0.0341 -0.0360
 1523CHOL    R417060  14.213  23.759   6.381  0.1622  0.0387 -0.0548
 1523CHOL    R517061  14.404  23.844   6.687  0.2664  0.0208 -0.1144
 1523CHOL    R617062  14.441  23.697   6.244  0.1075 -0.0700 -0.0982
 1523CHOL    C117063  14.245  23.612   5.958  0.0079 -0.0472 -0.0374
 1523CHOL    C217064  14.500  23.439   5.659 -0.2651 -0.2036  0.0640
 1524CHOL   ROH17065  14.550  15.569   7.254 -0.1428 -0.1866 -0.0276
 1524CHOL    R117066  14.678  15.803   6.915 -0.1245 -0.0572  0.0679
 1524CHOL    R217067  14.634  15.458   6.934  0.0532 -0.0852 -0.0124
 1524CHOL    R317068  14.737  15.770   6.492  0.0727  0.0490  0.0864
 1524CHOL    R417069  14.623  15.446   6.624  0.1910 -0.0369 -0.0199
 1524CHOL    R517070  14.407  15.564   6.901  0.0090 -0.2018 -0.0894
 1524CHOL    R617071  14.509  15.621   6.449  0.1710 -0.0676 -0.0373
 1524CHOL    C117072  14.727  15.503   6.191  0.3451  0.0953  0.0332
 1524CHOL    C217073  14.869  15.588   5.793  0.1989  0.2249  0.0379
 1525CHOL   ROH17074   2.636   0.413   5.807  0.1805 -0.0924  0.1523
 1525CHOL    R117075   2.696   0.065   5.558 -0.0937 -0.0026 -0.0454
 1525CHOL    R217076   2.756   0.399   5.480  0.2635 -0.0085  0.1789
 1525CHOL    R317077   2.887  -0.054   5.194 -0.1038  0.0335 -0.0626
 1525CHOL    R417078   2.940   0.307   5.247  0.2416 -0.0473  0.1769
 1525CHOL    R517079   2.951   0.315   5.617  0.1415 -0.2890  0.1870
 1525CHOL    R617080   3.115   0.097   5.238  0.0370 -0.2183  0.1007
 1525CHOL    C117081   3.091   0.096   4.881  0.1398  0.0278  0.0909
 1525CHOL    C217082   3.290  -0.051   4.538  0.0584  0.0025 -0.3012
 1526CHOL   ROH17083   4.222  11.733   7.176  0.1818  0.0284 -0.1519
 1526CHOL    R117084   4.044  11.967   6.861 -0.0786 -0.0671 -0.0782
 1526CHOL    R217085   4.153  11.637   6.848  0.1292  0.0019 -0.1331
 1526CHOL    R317086   3.870  11.923   6.472 -0.1862 -0.1568 -0.0205
 1526CHOL    R417087   3.980  11.594   6.595  0.0678 -0.0947 -0.0756
 1526CHOL    R517088   3.926  11.640   6.958  0.1639 -0.1498 -0.0537
 1526CHOL    R617089   3.732  11.692   6.535 -0.0168 -0.2496  0.0157
 1526CHOL    C117090   3.799  11.648   6.187 -0.1092 -0.1874 -0.0103
 1526CHOL    C217091   3.636  11.759   5.783 -0.2481 -0.0561  0.1602
 1527CHOL   ROH17092   4.543   7.231   3.350 -0.0459  0.0759  0.0595
 1527CHOL    R117093   4.640   7.276   3.768 -0.0073 -0.0266  0.0618
 1527CHOL    R217094   4.340   7.171   3.627 -0.0264  0.0261  0.0631
 1527CHOL    R317095   4.493   7.173   4.156  0.0188 -0.1057  0.0509
 1527CHOL    R417096   4.259   7.048   3.900 -0.0115 -0.0311  0.0419
 1527CHOL    R517097   4.499   6.975   3.628 -0.0397  0.0151  0.0046
 1527CHOL    R617098   4.414   6.918   4.084 -0.0047 -0.0838 -0.0010
 1527CHOL    C117099   4.178   7.000   4.340  0.0226 -0.1264  0.0379
 1527CHOL    C217100   4.206   6.833   4.770  0.1829  0.3501  0.4028
 1528CHOL   ROH17101   0.776   6.954   4.421 -0.1547 -0.1132 -0.0967
 1528CHOL    R117102   0.809   7.184   4.785 -0.0945 -0.0177 -0.1620
 1528CHOL    R217103   0.667   6.869   4.741  0.0337 -0.0955 -0.0265
 1528CHOL    R317104   0.768   7.142   5.208  0.1216  0.0551 -0.1328
 1528CHOL    R417105   0.690   6.821   5.046  0.1983 -0.0181 -0.0257
 1528CHOL    R517106   0.918   6.840   4.755  0.0547  0.0265 -0.1359
 1528CHOL    R617107   0.889   6.893   5.219  0.2447  0.1142 -0.1333
 1528CHOL    C117108   0.658   6.876   5.491  0.3782  0.0639 -0.0222
 1528CHOL    C217109   0.450   6.944   5.893 -0.2775 -0.2080  0.2400
 1529CHOL   ROH17110   2.480  26.847   7.497  0.0539  0.0605 -0.0520
 1529CHOL    R117111   2.269  26.940   7.133  0.0202  0.0460 -0.0363
 1529CHOL    R217112   2.565  26.760   7.170 -0.0329 -0.0442 -0.0474
 1529CHOL    R317113   2.258  26.832   6.719 -0.0894 -0.0469 -0.0095
 1529CHOL    R417114   2.523  26.641   6.887 -0.1232 -0.0966 -0.0126
 1529CHOL    R517115   2.372  26.606   7.224 -0.0753  0.0322  0.0228
 1529CHOL    R617116   2.292  26.561   6.765 -0.1718 -0.0482  0.0471
 1529CHOL    C117117   2.448  26.604   6.446 -0.2138 -0.1744  0.0091
 1529CHOL    C217118   2.472  26.750   6.051 -0.0208 -0.1134 -0.1965
 1530CHOL   ROH17119  10.335   4.310   7.133  0.1502  0.0206 -0.0047
 1530CHOL    R117120  10.335   4.046   6.791  0.0215  0.0862 -0.0558
 1530CHOL    R217121  10.301   4.392   6.796  0.0894  0.0923  0.0189
 1530CHOL    R317122  10.362   4.056   6.365 -0.0738  0.1631 -0.0606
 1530CHOL    R417123  10.375   4.400   6.495  0.0224  0.1358  0.0031
 1530CHOL    R517124  10.546   4.338   6.818  0.0841  0.0404 -0.0473
 1530CHOL    R617125  10.559   4.250   6.359 -0.0373  0.1263 -0.0675
 1530CHOL    C117126  10.381   4.312   6.054 -0.0948  0.2193 -0.0156
 1530CHOL    C217127  10.582   4.160   5.687  0.1653 -0.0698 -0.0707
 1531CHOL   ROH17128  12.133   7.065   7.108  0.0749  0.0426  0.0798
 1531CHOL    R117129  12.045   6.972   6.696 -0.0469  0.0664  0.1000
 1531CHOL    R217130  12.320   7.143   6.824  0.0181  0.0122  0.0338
 1531CHOL    R317131  12.230   6.967   6.310 -0.1451  0.0382  0.0530
 1531CHOL    R417132  12.472   7.089   6.559 -0.0588 -0.0120 -0.0057
 1531CHOL    R517133  12.360   6.896   6.855 -0.0209  0.0039  0.0190
 1531CHOL    R617134  12.471   6.866   6.402 -0.1409 -0.0091 -0.0097
 1531CHOL    C117135  12.573   7.065   6.122 -0.1737 -0.0235 -0.0320
 1531CHOL    C217136  12.572   7.012   5.709 -0.3216  0.1061 -0.1392
 1532CHOL   ROH17137  21.171   1.177   7.480 -0.0113  0.1450  0.0305
 1532CHOL    R117138  21.082   0.943   7.129 -0.0917  0.0896  0.0873
 1532CHOL    R217139  21.073   1.289   7.165  0.0804  0.1054 -0.0123
 1532CHOL    R317140  21.022   0.986   6.708 -0.0232  0.0008  0.0680
 1532CHOL    R417141  21.085   1.317   6.856  0.1289  0.0119 -0.0195
 1532CHOL    R517142  21.314   1.220   7.131  0.0496 -0.0269  0.0332
 1532CHOL    R617143  21.226   1.170   6.674  0.0746 -0.1121  0.0375
 1532CHOL    C117144  20.995   1.267   6.419  0.1513 -0.0665 -0.0151
 1532CHOL    C217145  20.910   1.218   5.992  0.2263  0.1180  0.4376
 1533CHOL   ROH17146  27.299   4.464   3.888  0.1238 -0.0609  0.0302
 1533CHOL    R117147  27.265   4.706   4.244  0.1503  0.1752 -0.1254
 1533CHOL    R217148  27.494   4.453   4.177  0.0048 -0.0244  0.1129
 1533CHOL    R317149  27.481   4.806   4.599  0.0814  0.2378 -0.1008
 1533CHOL    R417150  27.676   4.563   4.402 -0.0065 -0.0149  0.1174
 1533CHOL    R517151  27.573   4.663   4.061  0.1940 -0.1456  0.0171
 1533CHOL    R617152  27.727   4.822   4.472  0.1434 -0.0060 -0.0176
 1533CHOL    C117153  27.818   4.714   4.801 -0.0577  0.1249  0.0833
 1533CHOL    C217154  27.973   4.708   5.236  0.5640  0.0624  0.0731
 1534CHOL   ROH17155  11.173  13.845   3.838  0.0564  0.0141  0.0317
 1534CHOL    R117156  10.932  14.029   4.144 -0.0670  0.0079 -0.0611
 1534CHOL    R217157  11.152  13.761   4.175 -0.0405  0.0402  0.0323
 1534CHOL    R317158  10.887  14.040   4.569 -0.2048  0.0383 -0.0758
 1534CHOL    R417159  11.159  13.808   4.482 -0.1449  0.0676  0.0310
 1534CHOL    R517160  11.287  13.974   4.176 -0.0695  0.0587  0.0576
 1534CHOL    R617161  11.159  14.043   4.621 -0.2213  0.0796  0.0112
 1534CHOL    C117162  11.030  13.872   4.907 -0.2899  0.0867 -0.0154
 1534CHOL    C217163  10.971  14.010   5.320 -0.0410 -0.2752  0.0824
 1535CHOL   ROH17164  23.105  10.596   7.118  0.1709  0.2201  0.0358
 1535CHOL    R117165  23.069  10.933   6.852 -0.0159  0.1161 -0.0727
 1535CHOL    R217166  23.219  10.626   6.790  0.1951  0.1938  0.0418
 1535CHOL    R317167  23.115  11.037   6.439 -0.0294  0.0194 -0.0987
 1535CHOL    R417168  23.200  10.682   6.486  0.1981  0.0880  0.0217
 1535CHOL    R517169  22.970  10.598   6.763  0.2160  0.0219  0.0167
 1535CHOL    R617170  23.001  10.803   6.344  0.1359 -0.0858 -0.0426
 1535CHOL    C117171  23.234  10.884   6.086  0.1180 -0.0119 -0.0361
 1535CHOL    C217172  23.154  11.089   5.711 -0.2008  0.2765  0.1852
 1536CHOL   ROH17173  11.260  27.612   4.093 -0.3175  0.0884 -0.0618
 1536CHOL    R117174  11.027  27.882   4.336 -0.2199  0.0732  0.0495
 1536CHOL    R217175  11.202  27.598   4.437 -0.3354 -0.0421 -0.0695
 1536CHOL    R317176  10.954  27.980   4.746 -0.1957 -0.0803  0.0914
 1536CHOL    R417177  11.195  27.702   4.729 -0.3048 -0.1688 -0.0231
 1536CHOL    R517178  11.367  27.788   4.412 -0.2592 -0.0957  0.0214
 1536CHOL    R617179  11.219  27.957   4.822 -0.2070 -0.2193  0.0918
 1536CHOL    C117180  11.046  27.863   5.121 -0.2554 -0.2843  0.0438
 1536CHOL    C217181  10.799  28.001   5.448 -0.0193  0.1726 -0.0569
 1537CHOL   ROH17182   7.616  24.911   4.914  0.0023  0.1563  0.0245
 1537CHOL    R117183   7.953  24.670   5.037 -0.0321  0.1199  0.0476
 1537CHOL    R217184   7.861  24.986   5.151 -0.0257  0.1149  0.0667
 1537CHOL    R317185   8.250  24.647   5.343 -0.0768  0.0677  0.0874
 1537CHOL    R417186   8.038  24.943   5.401 -0.0639  0.0769  0.0873
 1537CHOL    R517187   7.717  24.816   5.268 -0.0543  0.1133  0.0292
 1537CHOL    R617188   8.077  24.716   5.548 -0.1008  0.0593  0.0700
 1537CHOL    C117189   8.389  24.846   5.665 -0.1079  0.0254  0.1271
 1537CHOL    C217190   8.808  24.856   5.863  0.2218  0.0785  0.1019
 1538CHOL   ROH17191  10.523  15.365   4.173 -0.1939  0.4188 -0.0590
 1538CHOL    R117192  10.584  15.299   4.594 -0.0699  0.1049 -0.1236
 1538CHOL    R217193  10.309  15.443   4.437 -0.0817  0.2969  0.0692
 1538CHOL    R317194  10.371  15.300   4.965  0.0559 -0.0917 -0.0491
 1538CHOL    R417195  10.141  15.392   4.692 -0.0103  0.1675  0.0911
 1538CHOL    R517196  10.288  15.193   4.417 -0.1616  0.3160 -0.0996
 1538CHOL    R617197  10.145  15.178   4.862 -0.0151  0.0467 -0.0595
 1538CHOL    C117198  10.008  15.382   5.122  0.1323 -0.0938  0.1313
 1538CHOL    C217199   9.907  15.275   5.533  0.1715  0.2530 -0.0718
 1539CHOL   ROH17200  24.702  16.930   4.420 -0.2437 -0.0180 -0.2059
 1539CHOL    R117201  24.572  17.175   4.750 -0.1892 -0.0532 -0.1580
 1539CHOL    R217202  24.404  16.911   4.598 -0.2078 -0.0465 -0.1486
 1539CHOL    R317203  24.274  17.189   5.056 -0.1295 -0.0932 -0.0979
 1539CHOL    R417204  24.222  16.889   4.849 -0.1575 -0.0768 -0.1148
 1539CHOL    R517205  24.574  16.814   4.758 -0.1722 -0.0540 -0.1908
 1539CHOL    R617206  24.287  16.918   5.112 -0.1071 -0.0978 -0.1248
 1539CHOL    C117207  23.946  16.994   5.187 -0.0957 -0.1189 -0.0506
 1539CHOL    C217208  23.771  17.199   5.513  0.3753  0.2010  0.2413
 1540CHOL   ROH17209  15.932  13.248   6.647 -0.2787  0.0683  0.0358
 1540CHOL    R117210  15.858  13.553   6.351 -0.1097  0.1049  0.0302
 1540CHOL    R217211  16.067  13.276   6.326 -0.2256  0.0144  0.0531
 1540CHOL    R317212  15.920  13.636   5.936 -0.0217  0.0840  0.0389
 1540CHOL    R417213  16.065  13.308   6.018 -0.1734  0.0195  0.0532
 1540CHOL    R517214  15.831  13.200   6.283 -0.2540  0.1169  0.0224
 1540CHOL    R617215  15.860  13.379   5.853 -0.1222  0.1105  0.0281
 1540CHOL    C117216  16.096  13.485   5.606 -0.0448  0.0120  0.0592
 1540CHOL    C217217  15.932  13.609   5.242 -0.1544  0.1961 -0.4578
 1541CHOL   ROH17218  10.241   1.954   6.853  0.1374 -0.1200 -0.0174
 1541CHOL    R117219  10.512   2.032   6.526  0.1788 -0.0168  0.0412
 1541CHOL    R217220  10.179   2.127   6.556  0.1206 -0.1862 -0.0529
 1541CHOL    R317221  10.547   2.273   6.175  0.1408 -0.0384  0.0225
 1541CHOL    R417222  10.224   2.341   6.336  0.0645 -0.1876 -0.0659
 1541CHOL    R517223  10.318   2.289   6.691  0.0037 -0.0976 -0.0360
 1541CHOL    R617224  10.441   2.500   6.292 -0.0067 -0.0795 -0.0297
 1541CHOL    C117225  10.342   2.538   5.950  0.0583 -0.1703 -0.0589
 1541CHOL    C217226  10.389   2.573   5.515 -0.0292  0.3135  0.0327
 1542CHOL   ROH17227  13.507  20.707   6.930 -0.1802 -0.0045  0.0263
 1542CHOL    R117228  13.553  20.936   6.567 -0.0107 -0.0264  0.0334
 1542CHOL    R217229  13.466  20.601   6.601 -0.1355  0.0040  0.0180
 1542CHOL    R317230  13.468  20.916   6.149  0.0858 -0.0042  0.0125
 1542CHOL    R417231  13.355  20.606   6.311 -0.0624  0.0379 -0.0099
 1542CHOL    R517232  13.260  20.740   6.643 -0.0981  0.0766 -0.0356
 1542CHOL    R617233  13.218  20.803   6.182  0.0381  0.0835 -0.0475
 1542CHOL    C117234  13.321  20.667   5.868  0.0689  0.0422 -0.0196
 1542CHOL    C217235  13.590  20.776   5.544  0.1228 -0.1696 -0.1934
 1543CHOL   ROH17236  13.286  13.297   7.114 -0.1045  0.2640  0.0385
 1543CHOL    R117237  13.046  13.393   6.769 -0.0600  0.2148 -0.0064
 1543CHOL    R217238  13.392  13.403   6.799 -0.0593  0.1399  0.0112
 1543CHOL    R317239  13.082  13.464   6.349 -0.0170  0.0745 -0.0270
 1543CHOL    R417240  13.415  13.399   6.490 -0.0412  0.0375  0.0134
 1543CHOL    R517241  13.324  13.163   6.760 -0.1153  0.1439  0.0822
 1543CHOL    R617242  13.266  13.262   6.307 -0.0634  0.0163  0.0473
 1543CHOL    C117243  13.357  13.501   6.056  0.0099 -0.0839 -0.0222
 1543CHOL    C217244  13.301  13.581   5.629  0.7048 -0.0098 -0.2153
 1544CHOL   ROH17245  23.474  25.987   6.972  0.2641 -0.0527 -0.0554
 1544CHOL    R117246  23.275  25.875   6.606  0.0373 -0.0122  0.0538
 1544CHOL    R217247  23.494  26.140   6.659  0.1603 -0.0856 -0.0784
 1544CHOL    R317248  23.284  25.953   6.186 -0.1479 -0.0504  0.0420
 1544CHOL    R417249  23.540  26.158   6.353  0.0117 -0.1275 -0.1041
 1544CHOL    R517250  23.631  25.930   6.630  0.0710 -0.1375 -0.1316
 1544CHOL    R617251  23.560  25.958   6.169 -0.1537 -0.1506 -0.0989
 1544CHOL    C117252  23.465  26.186   5.911 -0.2031 -0.1379 -0.0696
 1544CHOL    C217253  23.358  26.256   5.495 -0.3217 -0.0565 -0.4481
 1545CHOL   ROH17254   3.530  23.587   4.145 -0.0836  0.0258  0.1615
 1545CHOL    R117255   3.509  23.485   4.563 -0.0839  0.0425  0.1655
 1545CHOL    R217256   3.487  23.800   4.418 -0.0010  0.0457  0.1594
 1545CHOL    R317257   3.401  23.653   4.941 -0.0071  0.0841  0.1692
 1545CHOL    R417258   3.357  23.907   4.678  0.0492  0.0908  0.1660
 1545CHOL    R517259   3.262  23.688   4.395 -0.0361  0.1116  0.1783
 1545CHOL    R617260   3.178  23.785   4.844  0.0249  0.1479  0.1819
 1545CHOL    C117261   3.283  23.999   5.111  0.1075  0.1239  0.1691
 1545CHOL    C217262   3.505  23.977   5.484  0.0095 -0.1028 -0.0249
 1546CHOL   ROH17263  25.434   9.847   4.185 -0.0338  0.0096 -0.0899
 1546CHOL    R117264  25.342   9.572   4.504 -0.1267 -0.0294 -0.1499
 1546CHOL    R217265  25.480   9.890   4.528  0.0515 -0.1101 -0.0855
 1546CHOL    R317266  25.303   9.558   4.930 -0.0580 -0.1262 -0.1464
 1546CHOL    R417267  25.400   9.898   4.827  0.1091 -0.1493 -0.0689
 1546CHOL    R517268  25.230   9.915   4.499  0.0589  0.0342 -0.0348
 1546CHOL    R617269  25.175   9.803   4.949  0.0781 -0.0605 -0.0558
 1546CHOL    C117270  25.351   9.786   5.260  0.1249 -0.2427 -0.0912
 1546CHOL    C217271  25.140   9.617   5.609  0.2801  0.0850  0.0432
 1547CHOL   ROH17272   4.899   5.476   5.738 -0.2378 -0.1034  0.1231
 1547CHOL    R117273   4.934   5.465   6.168 -0.1856 -0.1460  0.1179
 1547CHOL    R217274   5.147   5.324   5.932 -0.1195  0.0255  0.0738
 1547CHOL    R317275   5.215   5.369   6.476 -0.0903 -0.0131  0.0734
 1547CHOL    R417276   5.369   5.307   6.148 -0.0844  0.1348  0.0474
 1547CHOL    R517277   5.201   5.570   5.949 -0.2750  0.0586  0.1048
 1547CHOL    R617278   5.431   5.483   6.346 -0.1761  0.1455  0.0672
 1547CHOL    C117279   5.585   5.219   6.531  0.0136  0.2149  0.0110
 1547CHOL    C217280   5.720   5.196   6.945 -0.2163 -0.0507 -0.1488
 1548CHOL   ROH17281  23.426   0.178   6.514 -0.2611  0.0778 -0.0221
 1548CHOL    R117282  23.611   0.310   6.147  0.0196  0.0362  0.1018
 1548CHOL    R217283  23.404   0.035   6.196 -0.1435  0.1292 -0.0543
 1548CHOL    R317284  23.594   0.246   5.724  0.2370  0.0988  0.0819
 1548CHOL    R417285  23.350   0.026   5.891  0.0313  0.1943 -0.0882
 1548CHOL    R517286  23.258   0.241   6.179 -0.0347  0.2020 -0.1148
 1548CHOL    R617287  23.317   0.232   5.715  0.2344  0.2331 -0.0827
 1548CHOL    C117288  23.413   0.016   5.446  0.2887  0.2210 -0.0537
 1548CHOL    C217289  23.500  -0.055   5.026  0.0103  0.0202  0.3275
 1549CHOL   ROH17290   0.026   0.750   7.121  0.0852 -0.0624  0.2230
 1549CHOL    R117291   0.248   0.669   6.760 -0.0273 -0.1156  0.1654
 1549CHOL    R217292  -0.060   0.828   6.792  0.0616  0.0406  0.2533
 1549CHOL    R317293   0.258   0.775   6.345 -0.0529 -0.0478  0.1819
 1549CHOL    R417294  -0.023   0.949   6.508  0.0692  0.0712  0.2672
 1549CHOL    R517295   0.121   0.996   6.846  0.1605 -0.0633  0.2480
 1549CHOL    R617296   0.204   1.043   6.389  0.0958 -0.0265  0.2399
 1549CHOL    C117297   0.057   0.987   6.068  0.0035  0.1071  0.2584
 1549CHOL    C217298   0.125   1.130   5.636 -0.0771 -0.1231 -0.0029
 1550CHOL   ROH17299  15.944   5.574   3.755 -0.2789 -0.0411 -0.2016
 1550CHOL    R117300  16.171   5.494   4.112 -0.1715  0.0245 -0.2548
 1550CHOL    R217301  15.851   5.627   4.086 -0.1597  0.0672 -0.1849
 1550CHOL    R317302  16.124   5.465   4.536 -0.0342  0.1517 -0.2301
 1550CHOL    R417303  15.801   5.554   4.384 -0.0717  0.1588 -0.1470
 1550CHOL    R517304  15.834   5.377   4.060 -0.2078  0.0622 -0.1086
 1550CHOL    R617305  15.881   5.334   4.523 -0.0594  0.1857 -0.1114
 1550CHOL    C117306  15.851   5.517   4.829  0.0715  0.2768 -0.1527
 1550CHOL    C217307  15.881   5.370   5.231 -0.0441  0.1678  0.2145
 1551CHOL   ROH17308  10.554  26.688   7.340  0.1183 -0.1657 -0.0534
 1551CHOL    R117309  10.481  26.762   6.922 -0.0084 -0.0455 -0.0111
 1551CHOL    R217310  10.774  26.650   7.073  0.1025  0.1082 -0.1089
 1551CHOL    R317311  10.653  26.688   6.537 -0.0185  0.2405 -0.0728
 1551CHOL    R417312  10.872  26.547   6.797  0.1318  0.2945 -0.1690
 1551CHOL    R517313  10.618  26.453   7.049  0.2437  0.0009 -0.1623
 1551CHOL    R617314  10.731  26.429   6.596  0.1846  0.2717 -0.1930
 1551CHOL    C117315  10.980  26.531   6.361  0.0700  0.5550 -0.1958
 1551CHOL    C217316  10.953  26.527   5.945 -0.2018 -0.1451 -0.3768
 1552CHOL   ROH17317   9.954  19.118   6.766  0.0171 -0.1680  0.1513
 1552CHOL    R117318   9.795  19.395   6.476  0.1667 -0.0290  0.2012
 1552CHOL    R217319   9.929  19.079   6.421 -0.0116 -0.0956  0.1450
 1552CHOL    R317320   9.670  19.413   6.068  0.1684  0.1108  0.2062
 1552CHOL    R417321   9.790  19.073   6.144 -0.0207  0.0296  0.1464
 1552CHOL    R517322   9.691  19.050   6.500 -0.0269  0.0242  0.1444
 1552CHOL    R617323   9.544  19.167   6.072  0.0299  0.1804  0.1667
 1552CHOL    C117324   9.653  19.190   5.732  0.0365  0.1769  0.1685
 1552CHOL    C217325   9.594  19.396   5.362  0.2274  0.0446  0.2328
 1553CHOL   ROH17326  27.265  23.545   7.118 -0.1108 -0.0237 -0.0462
 1553CHOL    R117327  27.426  23.303   6.799 -0.0076 -0.0693  0.0399
 1553CHOL    R217328  27.247  23.600   6.774 -0.0890 -0.1264 -0.0642
 1553CHOL    R317329  27.508  23.318   6.380  0.0337 -0.1656  0.0442
 1553CHOL    R417330  27.353  23.636   6.485 -0.0675 -0.1784 -0.0627
 1553CHOL    R517331  27.486  23.658   6.830 -0.1112 -0.0430 -0.0541
 1553CHOL    R617332  27.601  23.579   6.384 -0.0403 -0.1376 -0.0195
 1553CHOL    C117333  27.460  23.554   6.056  0.0020 -0.2706 -0.0284
 1553CHOL    C217334  27.440  23.499   5.630  0.0168  0.2948  0.0295
 1554CHOL   ROH17335  10.680  22.479   4.161 -0.1806 -0.0520 -0.0363
 1554CHOL    R117336  10.873  22.550   4.540 -0.1398  0.1250 -0.0893
 1554CHOL    R217337  10.554  22.425   4.482 -0.0888 -0.0512  0.0002
 1554CHOL    R317338  10.830  22.462   4.957 -0.0107  0.1877 -0.0622
 1554CHOL    R417339  10.549  22.314   4.771  0.0266  0.0048  0.0244
 1554CHOL    R517340  10.718  22.236   4.451  0.0024  0.0261  0.0064
 1554CHOL    R617341  10.750  22.200   4.916  0.1150  0.1372  0.0078
 1554CHOL    C117342  10.579  22.286   5.219  0.1315  0.1118  0.0245
 1554CHOL    C217343  10.665  22.438   5.597  0.2441  0.2749 -0.1252
 1555CHOL   ROH17344   6.771  24.775   7.636  0.0818  0.0230 -0.1786
 1555CHOL    R117345   6.498  24.889   7.322 -0.0693 -0.0228 -0.0648
 1555CHOL    R217346   6.763  24.663   7.305 -0.0505  0.0066 -0.1703
 1555CHOL    R317347   6.373  24.769   6.931 -0.2277 -0.0552 -0.0053
 1555CHOL    R417348   6.638  24.542   7.049 -0.1496 -0.0196 -0.1104
 1555CHOL    R517349   6.566  24.546   7.412  0.0092 -0.0107 -0.0784
 1555CHOL    R617350   6.376  24.499   6.988 -0.1719 -0.0525  0.0067
 1555CHOL    C117351   6.457  24.503   6.640 -0.3250 -0.0595 -0.0297
 1555CHOL    C217352   6.205  24.534   6.304 -0.0695  0.0769  0.0176
 1556CHOL   ROH17353  10.385  14.778   3.875  0.1224  0.0609 -0.0133
 1556CHOL    R117354  10.193  14.595   4.216  0.0212  0.0768 -0.0613
 1556CHOL    R217355  10.466  14.811   4.213  0.1066 -0.0293 -0.0004
 1556CHOL    R317356  10.178  14.621   4.642 -0.0048  0.0090 -0.0579
 1556CHOL    R417357  10.417  14.870   4.513  0.1041 -0.0620  0.0057
 1556CHOL    R517358  10.257  14.949   4.189  0.1627  0.0572  0.0053
 1556CHOL    R617359  10.181  14.898   4.648  0.1033  0.0071 -0.0098
 1556CHOL    C117360  10.347  14.814   4.953  0.0446 -0.1109 -0.0098
 1556CHOL    C217361  10.377  14.703   5.375 -0.1990  0.2503 -0.2208
 1557CHOL   ROH17362  24.274   8.351   3.823  0.0919  0.1214 -0.0185
 1557CHOL    R117363  24.508   8.292   4.181  0.1011  0.1585 -0.0183
 1557CHOL    R217364  24.209   8.467   4.146  0.0120  0.0129  0.0053
 1557CHOL    R317365  24.482   8.336   4.606  0.0525  0.0457 -0.0093
 1557CHOL    R417366  24.167   8.449   4.452  0.0026 -0.0809 -0.0013
 1557CHOL    R517367  24.154   8.221   4.160  0.1379 -0.0197 -0.0557
 1557CHOL    R617368  24.222   8.242   4.622  0.0990 -0.0930 -0.0465
 1557CHOL    C117369  24.238   8.473   4.895 -0.0368 -0.1483  0.0087
 1557CHOL    C217370  24.231   8.518   5.338  0.1081 -0.0226  0.1732
 1558CHOL   ROH17371   6.660  22.762   4.635 -0.2501  0.0548 -0.0058
 1558CHOL    R117372   6.735  22.523   4.986 -0.1747 -0.0083 -0.0643
 1558CHOL    R217373   6.856  22.840   4.912 -0.2093  0.0147 -0.0230
 1558CHOL    R317374   6.895  22.554   5.381 -0.1110 -0.0736 -0.0847
 1558CHOL    R417375   6.922  22.881   5.213 -0.1621 -0.0390 -0.0259
 1558CHOL    R517376   6.620  22.865   4.998 -0.1968 -0.0185  0.0212
 1558CHOL    R617377   6.781  22.801   5.432 -0.1198 -0.0916 -0.0177
 1558CHOL    C117378   7.080  22.814   5.628 -0.0882 -0.1085 -0.0650
 1558CHOL    C217379   7.357  22.650   5.954 -0.0771 -0.2765 -0.3161
 1559CHOL   ROH17380  15.562   4.448   4.446 -0.2311 -0.0059 -0.1039
 1559CHOL    R117381  15.416   4.376   4.846 -0.0872  0.0459 -0.0412
 1559CHOL    R217382  15.746   4.408   4.740 -0.1241  0.0153 -0.1674
 1559CHOL    R317383  15.547   4.377   5.253  0.0641  0.0826 -0.0897
 1559CHOL    R417384  15.830   4.463   5.033 -0.0119  0.0423 -0.2043
 1559CHOL    R517385  15.648   4.640   4.763 -0.1021  0.0235 -0.1562
 1559CHOL    R617386  15.700   4.606   5.226  0.0681  0.0709 -0.1713
 1559CHOL    C117387  15.878   4.425   5.478  0.1512  0.0879 -0.2174
 1559CHOL    C217388  15.818   4.494   5.893  0.5360 -0.1242 -0.2398
 1560CHOL   ROH17389  21.709  26.842   4.005 -0.2362  0.1148 -0.1692
 1560CHOL    R117390  21.714  27.109   4.343 -0.0450  0.0659 -0.1323
 1560CHOL    R217391  21.562  26.797   4.318 -0.0892  0.0849 -0.1033
 1560CHOL    R317392  21.626  27.116   4.762  0.1585  0.0151 -0.0870
 1560CHOL    R417393  21.549  26.782   4.627  0.0594  0.0421 -0.0983
 1560CHOL    R517394  21.808  26.761   4.363 -0.0703  0.0536 -0.2276
 1560CHOL    R617395  21.732  26.866   4.812  0.1580 -0.0030 -0.1745
 1560CHOL    C117396  21.472  26.888   5.057  0.2786 -0.0116 -0.0446
 1560CHOL    C217397  21.184  27.023   5.368 -0.1856 -0.1596 -0.2063
 1561CHOL   ROH17398   6.009  20.572   7.377 -0.0925 -0.0089 -0.0436
 1561CHOL    R117399   5.773  20.575   7.016  0.0690  0.1204 -0.1495
 1561CHOL    R217400   6.116  20.622   7.049  0.0633  0.0539  0.0158
 1561CHOL    R317401   5.816  20.564   6.590  0.2575  0.2179 -0.1338
 1561CHOL    R417402   6.149  20.559   6.747  0.1873  0.1224  0.0146
 1561CHOL    R517403   6.070  20.374   7.058  0.0162  0.0592 -0.0656
 1561CHOL    R617404   6.018  20.375   6.593  0.2241  0.1825 -0.0895
 1561CHOL    C117405   6.097  20.566   6.301  0.3880  0.2413 -0.0085
 1561CHOL    C217406   5.993  20.562   5.867  0.0830 -0.1875  0.0600
 1562CHOL   ROH17407  24.841   2.723   7.616 -0.1410 -0.1352 -0.0694
 1562CHOL    R117408  25.128   2.989   7.435 -0.0650 -0.1588  0.0156
 1562CHOL    R217409  25.043   2.666   7.338 -0.1497 -0.1078 -0.0813
 1562CHOL    R317410  25.361   3.033   7.079 -0.0447 -0.1168  0.0341
 1562CHOL    R417411  25.166   2.721   7.059 -0.1282 -0.0590 -0.0622
 1562CHOL    R517412  24.866   2.823   7.250 -0.1055 -0.0344 -0.0398
 1562CHOL    R617413  25.159   2.949   6.909 -0.0633 -0.0129  0.0044
 1562CHOL    C117414  25.453   2.843   6.735 -0.0876 -0.0409 -0.0196
 1562CHOL    C217415  25.701   3.098   6.472 -0.0138 -0.0242 -0.0015
 1563CHOL   ROH17416  23.756  24.526   4.740 -0.0503  0.0459 -0.0379
 1563CHOL    R117417  24.141  24.560   4.933 -0.0686 -0.0055  0.0079
 1563CHOL    R217418  23.859  24.389   5.044 -0.0736 -0.0506 -0.0731
 1563CHOL    R317419  24.369  24.387   5.251 -0.0921 -0.1026 -0.0275
 1563CHOL    R417420  24.038  24.226   5.237 -0.0860 -0.1082 -0.1100
 1563CHOL    R517421  23.975  24.245   4.872 -0.0538  0.0088 -0.1100
 1563CHOL    R617422  24.290  24.127   5.197 -0.0795 -0.0877 -0.1195
 1563CHOL    C117423  24.341  24.119   5.551 -0.1112 -0.2019 -0.1171
 1563CHOL    C217424  24.528  24.261   5.929 -0.0949 -0.0825  0.1222
 1564CHOL   ROH17425  16.639   9.231   6.792 -0.4148 -0.0988  0.0036
 1564CHOL    R117426  16.635   9.173   6.365 -0.0445 -0.0531 -0.0089
 1564CHOL    R217427  16.653   9.472   6.541 -0.3638 -0.0609  0.0426
 1564CHOL    R317428  16.709   9.384   6.000  0.1139  0.0335  0.0724
 1564CHOL    R417429  16.760   9.611   6.285 -0.2466  0.0332  0.1414
 1564CHOL    R517430  16.884   9.370   6.537 -0.2968  0.0793  0.2105
 1564CHOL    R617431  16.932   9.517   6.096 -0.0393  0.1589  0.2636
 1564CHOL    C117432  16.800   9.751   5.860  0.0026  0.1059  0.1872
 1564CHOL    C217433  16.952   9.743   5.456  0.4730 -0.0657 -0.0837
 1565CHOL   ROH17434   4.489   1.521   7.372  0.0580 -0.4646 -0.1025
 1565CHOL    R117435   4.687   1.316   7.048  0.3156 -0.0841 -0.1924
 1565CHOL    R217436   4.444   1.564   7.028  0.0465 -0.3338 -0.0850
 1565CHOL    R317437   4.744   1.342   6.625  0.3329  0.1993 -0.1749
 1565CHOL    R417438   4.527   1.617   6.735  0.0207 -0.0898 -0.0503
 1565CHOL    R517439   4.666   1.676   7.073 -0.0761 -0.1152 -0.0057
 1565CHOL    R617440   4.776   1.617   6.622  0.0362  0.2382 -0.0278
 1565CHOL    C117441   4.630   1.554   6.302  0.1351  0.2468 -0.0749
 1565CHOL    C217442   4.568   1.447   5.880 -0.0934  0.0926  0.2106
 1566CHOL   ROH17443   8.988  23.273   7.386  0.0987  0.0011  0.1198
 1566CHOL    R117444   9.015  23.264   6.956 -0.1196  0.0077  0.1046
 1566CHOL    R217445   8.892  23.519   7.158  0.0350  0.0279  0.1750
 1566CHOL    R317446   8.988  23.522   6.616 -0.2367  0.0236  0.1256
 1566CHOL    R417447   8.925  23.717   6.921 -0.0423  0.0278  0.1637
 1566CHOL    R517448   9.144  23.534   7.158  0.0390 -0.0249  0.0488
 1566CHOL    R617449   9.124  23.731   6.735 -0.1327 -0.0084  0.0640
 1566CHOL    C117450   8.901  23.902   6.513 -0.2092  0.0448  0.1806
 1566CHOL    C217451   8.965  23.924   6.089 -0.3269  0.1088 -0.1541
 1567CHOL   ROH17452   1.406  24.068   7.484 -0.2353 -0.2561 -0.0506
 1567CHOL    R117453   1.466  23.849   7.117 -0.1901 -0.1276 -0.1203
 1567CHOL    R217454   1.318  24.161   7.160 -0.1770 -0.1333 -0.0315
 1567CHOL    R317455   1.454  23.903   6.693 -0.1182  0.0260 -0.1035
 1567CHOL    R417456   1.362  24.218   6.858 -0.1246 -0.0272 -0.0043
 1567CHOL    R517457   1.569  24.192   7.164 -0.1756 -0.1507  0.0201
 1567CHOL    R617458   1.573  24.152   6.698 -0.1029  0.0172  0.0058
 1567CHOL    C117459   1.361  24.176   6.411 -0.0551  0.1341 -0.0205
 1567CHOL    C217460   1.272  24.117   5.984  0.1445 -0.4417 -0.4732
 1568CHOL   ROH17461  24.827   5.330   7.688 -0.1238 -0.1220 -0.0138
 1568CHOL    R117462  25.031   5.304   7.309 -0.0153 -0.1349  0.0452
 1568CHOL    R217463  24.714   5.432   7.374  0.0088 -0.0344 -0.0337
 1568CHOL    R317464  25.007   5.450   6.908  0.1599 -0.0643  0.0592
 1568CHOL    R417465  24.724   5.582   7.103  0.1451  0.0042 -0.0083
 1568CHOL    R517466  24.884   5.609   7.436  0.0517 -0.1028  0.0459
 1568CHOL    R617467  24.934   5.707   6.982  0.2267 -0.0501  0.0758
 1568CHOL    C117468  24.772   5.670   6.665  0.3115  0.0551  0.0193
 1568CHOL    C217469  24.958   5.801   6.318 -0.5028 -0.1790 -0.2084
 1569CHOL   ROH17470  13.884   4.356   7.200 -0.2897 -0.1779  0.0300
 1569CHOL    R117471  13.858   4.682   6.919 -0.0025 -0.0919  0.0994
 1569CHOL    R217472  13.991   4.364   6.868 -0.1760 -0.1604  0.0665
 1569CHOL    R317473  13.898   4.764   6.501  0.1829 -0.0130  0.1314
 1569CHOL    R417474  13.967   4.407   6.562 -0.0507 -0.0708  0.0684
 1569CHOL    R517475  13.740   4.348   6.849 -0.1808 -0.0054 -0.0200
 1569CHOL    R617476  13.770   4.532   6.420  0.0695  0.0825  0.0334
 1569CHOL    C117477  14.000   4.589   6.153  0.1917  0.0104  0.1222
 1569CHOL    C217478  14.086   4.862   5.810 -0.3893 -0.0415 -0.1960
 1570CHOL   ROH17479  11.633   4.850   7.103 -0.2438 -0.0631  0.0816
 1570CHOL    R117480  11.706   5.164   6.816 -0.2589 -0.0676  0.0728
 1570CHOL    R217481  11.694   4.820   6.761 -0.0991 -0.0798  0.1083
 1570CHOL    R317482  11.726   5.229   6.394 -0.1218 -0.1105  0.0721
 1570CHOL    R417483  11.653   4.874   6.458 -0.0039 -0.1325  0.0857
 1570CHOL    R517484  11.457   4.906   6.771 -0.1383 -0.1738  0.0062
 1570CHOL    R617485  11.507   5.070   6.336 -0.0356 -0.2057  0.0059
 1570CHOL    C117486  11.708   5.033   6.042  0.0935 -0.1605  0.0875
 1570CHOL    C217487  11.784   5.275   5.696 -0.3486 -0.0091  0.0777
 1571CHOL   ROH17488   4.579  11.870   6.809  0.0311  0.0079 -0.0634
 1571CHOL    R117489   4.599  11.996   6.397  0.0133  0.0372 -0.0553
 1571CHOL    R217490   4.438  11.718   6.529  0.0094  0.0341 -0.0667
 1571CHOL    R317491   4.418  11.920   6.017 -0.0110  0.0723 -0.0509
 1571CHOL    R417492   4.268  11.698   6.270 -0.0058  0.0598 -0.0587
 1571CHOL    R517493   4.290  11.919   6.567  0.0196  0.0372 -0.0438
 1571CHOL    R617494   4.161  11.898   6.118 -0.0063  0.0753 -0.0381
 1571CHOL    C117495   4.150  11.678   5.837 -0.0308  0.0962 -0.0537
 1571CHOL    C217496   4.170  11.716   5.422  0.2471 -0.0993  0.0822
 1572CHOL   ROH17497  16.594  15.171   3.965 -0.1985  0.2665  0.0852
 1572CHOL    R117498  16.537  15.118   4.390  0.0363  0.1689  0.1058
 1572CHOL    R217499  16.614  14.877   4.151 -0.0676  0.2281  0.0113
 1572CHOL    R317500  16.600  14.830   4.700  0.2336  0.1080  0.0107
 1572CHOL    R417501  16.712  14.689   4.378  0.0747  0.1885 -0.0808
 1572CHOL    R517502  16.827  14.999   4.211 -0.0474  0.2366 -0.0774
 1572CHOL    R617503  16.849  14.751   4.606  0.1920  0.1529 -0.1410
 1572CHOL    C117504  16.725  14.452   4.759  0.3049  0.1074 -0.1383
 1572CHOL    C217505  16.497  14.272   5.097 -0.1133 -0.0515 -0.0468
 1573CHOL   ROH17506  25.176   3.680   7.919  0.0244  0.0440 -0.0175
 1573CHOL    R117507  25.430   4.021   7.842  0.0240  0.0334 -0.0664
 1573CHOL    R217508  25.494   3.685   7.776  0.0428  0.0192  0.0228
 1573CHOL    R317509  25.783   4.130   7.627  0.0488 -0.0077 -0.0465
 1573CHOL    R417510  25.716   3.771   7.577  0.0664 -0.0219  0.0309
 1573CHOL    R517511  25.346   3.774   7.592  0.0641 -0.0295 -0.0180
 1573CHOL    R617512  25.720   3.981   7.402  0.0828 -0.0637 -0.0192
 1573CHOL    C117513  26.077   3.972   7.401  0.0833 -0.0533  0.0298
 1573CHOL    C217514  26.351   4.286   7.407 -0.0478  0.0712  0.1191
 1574CHOL   ROH17515  11.285   6.247   7.330 -0.2875 -0.0432 -0.1747
 1574CHOL    R117516  11.106   6.469   7.007 -0.0320 -0.0257 -0.3064
 1574CHOL    R217517  11.404   6.289   7.005 -0.1065 -0.1534 -0.1242
 1574CHOL    R317518  11.139   6.524   6.584  0.2027 -0.1168 -0.3016
 1574CHOL    R417519  11.395   6.284   6.696  0.0461 -0.2061 -0.1288
 1574CHOL    R517520  11.214   6.126   6.977 -0.1626 -0.0778 -0.1885
 1574CHOL    R617521  11.180   6.256   6.529  0.1162 -0.1449 -0.2309
 1574CHOL    C117522  11.363   6.415   6.267  0.3160 -0.2706 -0.1703
 1574CHOL    C217523  11.400   6.705   5.946 -0.0923 -0.3356 -0.1112
 1575CHOL   ROH17524  10.519  20.525   6.913  0.2550  0.0091  0.0310
 1575CHOL    R117525  10.628  20.722   6.545 -0.0487  0.1302  0.0026
 1575CHOL    R217526  10.469  20.415   6.586  0.0987  0.0576  0.0375
 1575CHOL    R317527  10.557  20.701   6.124 -0.2986  0.1904  0.0399
 1575CHOL    R417528  10.373  20.430   6.292 -0.0882  0.0809  0.0985
 1575CHOL    R517529  10.296  20.597   6.614  0.0415 -0.0167  0.1810
 1575CHOL    R617530  10.287  20.647   6.149 -0.2630  0.0772  0.1948
 1575CHOL    C117531  10.371  20.477   5.845 -0.3807  0.1741  0.1076
 1575CHOL    C217532  10.413  20.602   5.436  0.2031  0.0852  0.1451
 1576CHOL   ROH17533   0.736  12.762   7.249 -0.1159 -0.2003 -0.0664
 1576CHOL    R117534   0.573  13.111   7.053 -0.1285 -0.1451  0.0418
 1576CHOL    R217535   0.720  12.831   6.907 -0.0697 -0.0705 -0.0427
 1576CHOL    R317536   0.456  13.250   6.666 -0.0840 -0.0105  0.0764
 1576CHOL    R417537   0.587  12.907   6.638 -0.0361  0.0166 -0.0351
 1576CHOL    R517538   0.482  12.772   6.966 -0.0718 -0.1236 -0.1034
 1576CHOL    R617539   0.339  13.011   6.590 -0.0417  0.0035 -0.0347
 1576CHOL    C117540   0.455  13.142   6.278 -0.0079  0.1389  0.0336
 1576CHOL    C217541   0.280  13.412   5.971  0.1172 -0.2593  0.2987
 1577CHOL   ROH17542  15.772  12.475   6.661  0.2102 -0.2404  0.0346
 1577CHOL    R117543  15.578  12.501   6.277  0.0669 -0.1822  0.1104
 1577CHOL    R217544  15.908  12.416   6.345  0.1130 -0.1188 -0.0307
 1577CHOL    R317545  15.636  12.393   5.867 -0.0515 -0.0542  0.0590
 1577CHOL    R417546  15.929  12.289   6.064  0.0450 -0.0356 -0.0740
 1577CHOL    R517547  15.765  12.213   6.387  0.1787 -0.1663 -0.0359
 1577CHOL    R617548  15.744  12.145   5.924  0.0315 -0.0434 -0.0479
 1577CHOL    C117549  15.908  12.230   5.619 -0.0984  0.0826 -0.0836
 1577CHOL    C217550  15.787  12.229   5.194  0.0464  0.2407 -0.2532
 1578CHOL   ROH17551  26.615   0.344   7.058  0.0716 -0.1789  0.0240
 1578CHOL    R117552  26.641   0.633   6.738 -0.1108 -0.0697  0.1060
 1578CHOL    R217553  26.743   0.300   6.736  0.0738 -0.0140  0.0015
 1578CHOL    R317554  26.717   0.657   6.318 -0.1534  0.0951  0.1072
 1578CHOL    R417555  26.744   0.306   6.426  0.0485  0.0770  0.0030
 1578CHOL    R517556  26.494   0.305   6.699  0.0675 -0.1414  0.0213
 1578CHOL    R617557  26.571   0.430   6.255 -0.0325  0.0317  0.0517
 1578CHOL    C117558  26.823   0.430   6.002 -0.0497  0.2454  0.0330
 1578CHOL    C217559  26.823   0.523   5.576  0.1970 -0.1813  0.1131
 1579CHOL   ROH17560  10.065   7.712   6.897  0.0517 -0.0389 -0.0508
 1579CHOL    R117561  10.163   7.651   6.481  0.0319  0.0542 -0.0694
 1579CHOL    R217562  10.000   7.922   6.626 -0.0292 -0.0130 -0.0117
 1579CHOL    R317563  10.183   7.863   6.110 -0.0581  0.1192 -0.0376
 1579CHOL    R417564  10.065   8.091   6.374 -0.0970  0.0451  0.0093
 1579CHOL    R517565  10.247   7.951   6.664 -0.0335  0.0482 -0.0291
 1579CHOL    R617566  10.290   8.093   6.221 -0.1108  0.1310 -0.0104
 1579CHOL    C117567  10.102   8.222   5.946 -0.1703  0.1238  0.0269
 1579CHOL    C217568  10.206   8.176   5.545 -0.1127 -0.0440 -0.0024
 1580CHOL   ROH17569  10.050  16.170   7.362 -0.1290  0.0201  0.0952
 1580CHOL    R117570   9.937  16.355   6.989  0.0703  0.0364  0.0418
 1580CHOL    R217571  10.114  16.060   7.037 -0.1439 -0.0802  0.1259
 1580CHOL    R317572   9.913  16.272   6.571  0.0911 -0.0187  0.0516
 1580CHOL    R417573  10.047  15.977   6.746 -0.1466 -0.0838  0.1276
 1580CHOL    R517574   9.868  16.010   7.069 -0.1859  0.0959  0.0887
 1580CHOL    R617575   9.817  16.014   6.604 -0.0950  0.0528  0.0780
 1580CHOL    C117576  10.002  15.987   6.299 -0.0555 -0.1280  0.1171
 1580CHOL    C217577   9.969  16.051   5.867  0.2435  0.0120  0.0837
 1581CHOL   ROH17578   9.997  24.176   5.677 -0.0653 -0.0528 -0.0643
 1581CHOL    R117579   9.761  23.985   5.370 -0.0650 -0.0141 -0.0888
 1581CHOL    R217580  10.070  24.142   5.337 -0.0864  0.0303 -0.0773
 1581CHOL    R317581   9.792  23.845   4.967 -0.0778  0.0778 -0.1220
 1581CHOL    R417582  10.113  23.994   5.068 -0.0884  0.0945 -0.1130
 1581CHOL    R517583  10.110  23.911   5.429 -0.0515  0.0150 -0.1310
 1581CHOL    R617584  10.046  23.739   4.999 -0.0626  0.1014 -0.1641
 1581CHOL    C117585  10.046  23.834   4.654 -0.0997  0.1772 -0.1435
 1581CHOL    C217586  10.041  23.655   4.266  0.1082 -0.1097 -0.1049
 1582CHOL   ROH17587  14.984   7.578   6.826 -0.1152 -0.0601  0.0052
 1582CHOL    R117588  14.861   7.904   6.571 -0.0378 -0.0292  0.0070
 1582CHOL    R217589  14.872   7.564   6.496 -0.1694 -0.0375  0.0226
 1582CHOL    R317590  14.660   7.978   6.201 -0.0669  0.0228  0.0331
 1582CHOL    R417591  14.680   7.615   6.258 -0.1872  0.0183  0.0487
 1582CHOL    R517592  14.662   7.608   6.628 -0.1345  0.0441  0.0519
 1582CHOL    R617593  14.467   7.785   6.241 -0.1299  0.0933  0.0720
 1582CHOL    C117594  14.499   7.787   5.885 -0.1820  0.0635  0.0669
 1582CHOL    C217595  14.357   7.841   5.466  0.0622  0.1392 -0.2794
 1583CHOL   ROH17596  25.842   2.252   4.472 -0.0176 -0.2991 -0.0236
 1583CHOL    R117597  26.099   1.912   4.541  0.0911 -0.2013  0.0566
 1583CHOL    R217598  26.000   2.157   4.768 -0.1008 -0.2568  0.0349
 1583CHOL    R317599  26.276   1.690   4.860  0.0500 -0.1534  0.1133
 1583CHOL    R417600  26.081   1.968   5.001 -0.1202 -0.2416  0.0541
 1583CHOL    R517601  25.812   1.991   4.746 -0.0255 -0.3312 -0.0550
 1583CHOL    R617602  26.051   1.698   5.021 -0.0203 -0.2553  0.0217
 1583CHOL    C117603  26.316   1.688   5.262 -0.1145 -0.1662  0.1302
 1583CHOL    C217604  26.670   1.466   5.359 -0.1000 -0.0101  0.1595
 1584CHOL   ROH17605  20.186   0.370   3.646  0.0125  0.1807 -0.0116
 1584CHOL    R117606  20.568   0.444   3.831  0.0863 -0.0132 -0.0840
 1584CHOL    R217607  20.258   0.410   3.985  0.1044  0.1003 -0.0213
 1584CHOL    R317608  20.758   0.443   4.214  0.1706 -0.1512 -0.1251
 1584CHOL    R417609  20.402   0.355   4.254  0.1398 -0.0015 -0.0604
 1584CHOL    R517610  20.346   0.179   3.933 -0.0075  0.0691 -0.0740
 1584CHOL    R617611  20.631   0.214   4.302  0.0890 -0.1087 -0.1308
 1584CHOL    C117612  20.678   0.395   4.607  0.2352 -0.1726 -0.1144
 1584CHOL    C217613  20.784   0.740   4.824  0.0099  0.1242  0.0640
 1585CHOL   ROH17614  12.420   8.657   4.141  0.1626 -0.0851 -0.0346
 1585CHOL    R117615  12.208   8.532   4.496  0.1132 -0.0477 -0.0508
 1585CHOL    R217616  12.549   8.588   4.457  0.1255 -0.1033 -0.0232
 1585CHOL    R317617  12.264   8.488   4.917  0.0712 -0.0529 -0.0457
 1585CHOL    R417618  12.576   8.610   4.765  0.1037 -0.1047 -0.0212
 1585CHOL    R517619  12.437   8.811   4.488  0.1590 -0.0846 -0.0346
 1585CHOL    R617620  12.406   8.724   4.946  0.1071 -0.0756 -0.0362
 1585CHOL    C117621  12.545   8.519   5.204  0.0528 -0.0958 -0.0228
 1585CHOL    C217622  12.544   8.589   5.634 -0.2698  0.0147 -0.2469
 1586CHOL   ROH17623  18.149  26.521   4.180  0.1070 -0.0797 -0.0829
 1586CHOL    R117624  18.050  26.588   4.594  0.1615  0.0615 -0.0923
 1586CHOL    R217625  18.339  26.447   4.462  0.1146 -0.0474 -0.0795
 1586CHOL    R317626  18.230  26.592   4.982  0.1980  0.1261 -0.1097
 1586CHOL    R417627  18.484  26.502   4.731  0.1529 -0.0075 -0.1081
 1586CHOL    R517628  18.359  26.697   4.443  0.1749 -0.0574 -0.1518
 1586CHOL    R617629  18.463  26.716   4.898  0.2213  0.0452 -0.1663
 1586CHOL    C117630  18.579  26.515   5.170  0.1964  0.0926 -0.1204
 1586CHOL    C217631  18.724  26.763   5.512 -0.1569 -0.1324  0.1067
 1587CHOL   ROH17632   3.164   9.265   7.246  0.1925  0.0239  0.0468
 1587CHOL    R117633   2.983   9.145   6.873  0.1961 -0.1811  0.1098
 1587CHOL    R217634   3.241   9.373   6.923  0.0838 -0.0284  0.0027
 1587CHOL    R317635   3.046   9.169   6.451  0.1162 -0.2704  0.0924
 1587CHOL    R417636   3.318   9.345   6.624  0.0511 -0.0743 -0.0017
 1587CHOL    R517637   3.339   9.141   6.932  0.2089  0.0257  0.0553
 1587CHOL    R617638   3.318   9.123   6.466  0.1436 -0.1211  0.0631
 1587CHOL    C117639   3.292   9.331   6.176 -0.0132 -0.2185  0.0059
 1587CHOL    C217640   3.326   9.406   5.736 -0.1674  0.0552 -0.2388
 1588CHOL   ROH17641  22.596  24.099   7.097  0.1150 -0.0240  0.0448
 1588CHOL    R117642  22.647  24.257   6.699  0.1309 -0.0474  0.0374
 1588CHOL    R217643  22.508  23.953   6.793  0.0501 -0.0054  0.0546
 1588CHOL    R317644  22.522  24.189   6.296  0.0812 -0.0204  0.0483
 1588CHOL    R417645  22.372  23.933   6.515  0.0237  0.0274  0.0651
 1588CHOL    R517646  22.333  24.132   6.825  0.1038  0.0459  0.0637
 1588CHOL    R617647  22.260  24.130   6.364  0.0690  0.0565  0.0691
 1588CHOL    C117648  22.309  23.931   6.071 -0.0101  0.0358  0.0699
 1588CHOL    C217649  22.328  23.940   5.619 -0.2859  0.2400  0.2282
 1589CHOL   ROH17650   3.854  19.834   3.951  0.1681  0.2536  0.1476
 1589CHOL    R117651   3.547  20.002   4.204 -0.0288  0.0494  0.0483
 1589CHOL    R217652   3.672  19.678   4.205  0.1990  0.1349  0.0971
 1589CHOL    R317653   3.327  19.917   4.561 -0.0797 -0.0921 -0.0162
 1589CHOL    R417654   3.556  19.638   4.489  0.1389  0.0643  0.0631
 1589CHOL    R517655   3.835  19.824   4.331  0.0590  0.2538  0.1423
 1589CHOL    R617656   3.545  19.814   4.698 -0.0483  0.0645  0.0540
 1589CHOL    C117657   3.273  19.629   4.838  0.0367 -0.1217 -0.0234
 1589CHOL    C217658   2.985  19.635   5.146 -0.2667  0.2804  0.2759
 1590CHOL   ROH17659  18.003  22.866   7.084  0.1737  0.1618  0.0723
 1590CHOL    R117660  18.172  23.153   6.810  0.1363  0.0917 -0.0247
 1590CHOL    R217661  18.071  22.827   6.745  0.1681  0.0599  0.0827
 1590CHOL    R317662  18.230  23.218   6.392  0.1176 -0.0365 -0.0476
 1590CHOL    R417663  18.061  22.895   6.442  0.1526 -0.0379  0.0608
 1590CHOL    R517664  17.865  22.973   6.747  0.1532  0.0395  0.0414
 1590CHOL    R617665  17.980  23.125   6.319  0.1253 -0.0855 -0.0106
 1590CHOL    C117666  18.177  23.041   6.033  0.1257 -0.1567  0.0105
 1590CHOL    C217667  18.426  23.188   5.713 -0.1482 -0.2056 -0.2289
 1591CHOL   ROH17668   9.310  14.546   3.729 -0.0307  0.2781  0.0291
 1591CHOL    R117669   9.060  14.264   3.939  0.1214  0.0802 -0.0521
 1591CHOL    R217670   9.243  14.530   4.071 -0.0887  0.1944  0.0139
 1591CHOL    R317671   8.875  14.205   4.320  0.0849 -0.0899 -0.0956
 1591CHOL    R417672   9.068  14.518   4.326 -0.1332  0.0452 -0.0222
 1591CHOL    R517673   9.030  14.622   3.973 -0.1347  0.0569 -0.0186
 1591CHOL    R617674   8.801  14.469   4.351 -0.1056 -0.1438 -0.0812
 1591CHOL    C117675   8.852  14.365   4.689 -0.1014 -0.1452 -0.0823
 1591CHOL    C217676   8.701  14.033   4.899 -0.1065  0.4094  0.1215
 1592CHOL   ROH17677   9.363   1.285   6.375  0.0628  0.0927 -0.0506
 1592CHOL    R117678   9.417   1.256   5.948 -0.0314  0.0294 -0.0585
 1592CHOL    R217679   9.628   1.404   6.182  0.0365  0.0350 -0.1228
 1592CHOL    R317680   9.717   1.308   5.647 -0.0886 -0.0469 -0.1293
 1592CHOL    R417681   9.859   1.390   5.976 -0.0087 -0.0205 -0.1704
 1592CHOL    R517682   9.667   1.155   6.188  0.0075  0.0309 -0.0983
 1592CHOL    R617683   9.920   1.194   5.797 -0.0707 -0.0517 -0.1573
 1592CHOL    C117684  10.097   1.432   5.597 -0.0839 -0.0997 -0.2267
 1592CHOL    C217685  10.409   1.342   5.311  0.1095  0.0585  0.0244
 1593CHOL   ROH17686  22.889  22.893   3.913 -0.1124 -0.0439  0.1118
 1593CHOL    R117687  23.117  22.928   4.277 -0.2213  0.0992  0.1672
 1593CHOL    R217688  22.772  22.899   4.242 -0.1974 -0.0996  0.0830
 1593CHOL    R317689  23.076  22.883   4.701 -0.2998  0.0895  0.1586
 1593CHOL    R417690  22.753  22.813   4.539 -0.2210 -0.1011  0.0810
 1593CHOL    R517691  22.873  22.669   4.219 -0.0594 -0.0435  0.1149
 1593CHOL    R617692  22.921  22.654   4.684 -0.1653 -0.0005  0.1274
 1593CHOL    C117693  22.801  22.805   4.985 -0.3264 -0.0586  0.0934
 1593CHOL    C217694  22.759  23.099   5.324 -0.0096 -0.1282  0.1278
 1594CHOL   ROH17695  16.488  12.652   3.548 -0.0687 -0.1127  0.0214
 1594CHOL    R117696  16.339  12.830   3.912  0.2110 -0.0156  0.0908
 1594CHOL    R217697  16.436  12.500   3.857 -0.1357 -0.1085  0.0123
 1594CHOL    R317698  16.304  12.749   4.330  0.2469 -0.0438  0.0884
 1594CHOL    R417699  16.462  12.461   4.164 -0.0882 -0.1814 -0.0007
 1594CHOL    R517700  16.644  12.637   3.894  0.0156 -0.3228 -0.0241
 1594CHOL    R617701  16.555  12.635   4.353  0.1410 -0.3018  0.0008
 1594CHOL    C117702  16.370  12.460   4.603  0.0330 -0.1544  0.0252
 1594CHOL    C217703  16.172  12.606   4.958  0.0060 -0.1383 -0.2013
 1595CHOL   ROH17704  20.552  11.045   7.011 -0.0572  0.1072  0.0617
 1595CHOL    R117705  20.843  10.844   6.764 -0.0354  0.1241  0.0734
 1595CHOL    R217706  20.550  11.002   6.665 -0.0839  0.0332  0.0708
 1595CHOL    R317707  20.956  10.798   6.354 -0.0682  0.0639  0.0711
 1595CHOL    R417708  20.660  11.016   6.375 -0.1181 -0.0019  0.0562
 1595CHOL    R517709  20.726  11.180   6.701 -0.1222  0.0830  0.0145
 1595CHOL    R617710  20.914  11.064   6.289 -0.1386  0.0404  0.0190
 1595CHOL    C117711  20.840  10.898   5.981 -0.1319 -0.0428  0.0620
 1595CHOL    C217712  20.937  10.622   5.650 -0.1578 -0.0639 -0.2125
 1596CHOL   ROH17713  14.506   1.890   7.714 -0.0907  0.1830 -0.0536
 1596CHOL    R117714  14.310   2.129   7.412  0.0229  0.2531 -0.0722
 1596CHOL    R217715  14.633   2.000   7.408 -0.0525  0.0627 -0.0812
 1596CHOL    R317716  14.355   2.252   7.005  0.0600  0.1659 -0.0946
 1596CHOL    R417717  14.641   2.040   7.101 -0.0549  0.0120 -0.0880
 1596CHOL    R517718  14.474   1.815   7.342 -0.1669  0.1455 -0.0397
 1596CHOL    R617719  14.443   2.005   6.916 -0.0923  0.1004 -0.0654
 1596CHOL    C117720  14.611   2.229   6.694  0.0205 -0.0308 -0.1137
 1596CHOL    C217721  14.610   2.637   6.562 -0.2033 -0.1382  0.5133
 1597CHOL   ROH17722  22.455  19.594   3.624 -0.2481  0.0437  0.0531
 1597CHOL    R117723  22.616  19.790   3.973 -0.1034  0.0020  0.0100
 1597CHOL    R217724  22.375  19.540   3.959 -0.0915 -0.0137  0.0819
 1597CHOL    R317725  22.630  19.751   4.399  0.0937 -0.0625 -0.0013
 1597CHOL    R417726  22.428  19.478   4.258  0.0496 -0.0559  0.0489
 1597CHOL    R517727  22.601  19.431   3.934 -0.0941  0.0066 -0.0380
 1597CHOL    R617728  22.664  19.476   4.395  0.1130 -0.0596 -0.0587
 1597CHOL    C117729  22.485  19.527   4.701  0.2480 -0.1197  0.0313
 1597CHOL    C217730  22.581  19.526   5.126 -0.0539  0.0541 -0.1010
 1598POPC   NC317731  20.936  15.857   3.580 -0.2997  0.0035 -0.4368
 1598POPC   PO417732  21.127  15.839   3.242  0.5185 -0.0630 -0.1202
 1598POPC   GL117733  21.549  15.912   3.283  0.1405  0.0596  0.1859
 1598POPC   GL217734  21.344  16.140   3.414 -0.0106  0.0806  0.4295
 1598POPC   C1A17735  21.853  16.029   3.558  0.1647  0.2523  0.0616
 1598POPC   D2A17736  22.186  16.022   3.939  0.2815 -0.0190  0.1131
 1598POPC   C3A17737  22.155  15.995   4.353  0.1069  0.1301 -0.0698
 1598POPC   C4A17738  22.591  16.149   4.560 -0.1801  0.0395 -0.0176
 1598POPC   C1B17739  21.532  16.230   3.696 -0.3123 -0.1752  0.4332
 1598POPC   C2B17740  21.749  16.292   3.986  0.1341 -0.0252 -0.0283
 1598POPC   C3B17741  21.842  16.313   4.423  0.2501 -0.1869 -0.0495
 1598POPC   C4B17742  21.800  16.557   4.790 -0.2070 -0.3840  0.1797
 1599POPC   NC317743   2.610  14.176   3.000  0.1542  0.0835  0.0007
 1599POPC   PO417744   2.452  14.418   3.211  0.2157 -0.2166 -0.0429
 1599POPC   GL117745   2.552  14.493   3.564 -0.1458  0.1896 -0.2789
 1599POPC   GL217746   2.713  14.655   3.699 -0.1120 -0.2290 -0.4514
 1599POPC   C1A17747   2.389  14.266   3.961 -0.0950 -0.1110  0.2352
 1599POPC   D2A17748   2.258  13.940   4.273  0.1330  0.0668  0.0298
 1599POPC   C3A17749   2.343  14.111   4.697  0.1404  0.0315 -0.0649
 1599POPC   C4A17750   2.438  14.094   5.246  0.1498  0.3937  0.0472
 1599POPC   C1B17751   2.806  14.470   4.004 -0.1062 -0.0519 -0.1546
 1599POPC   C2B17752   2.579  14.440   4.405  0.2383 -0.0150  0.0766
 1599POPC   C3B17753   2.759  14.475   4.863  0.0436 -0.1301 -0.1254
 1599POPC   C4B17754   3.237  14.423   5.010 -0.0566 -0.2284  0.0766
 1600POPC   NC317755  25.224  13.264   4.256 -0.0018  0.0807 -0.1249
 1600POPC   PO417756  25.650  13.278   4.254  0.0194 -0.1861 -0.3627
 1600POPC   GL117757  25.763  13.257   4.658  0.1411 -0.0548 -0.5066
 1600POPC   GL217758  25.447  13.100   4.639 -0.0224 -0.2268  0.0499
 1600POPC   C1A17759  25.859  12.999   4.965  0.1565  0.0771  0.1639
 1600POPC   D2A17760  25.697  12.823   5.342 -0.3083  0.0439 -0.0229
 1600POPC   C3A17761  25.889  12.465   5.542  0.1145 -0.2140  0.1154
 1600POPC   C4A17762  25.610  12.080   5.744  0.2739  0.1823  0.3189
 1600POPC   C1B17763  25.313  13.004   4.953  0.2185  0.1753 -0.2916
 1600POPC   C2B17764  25.158  12.924   5.344 -0.1927  0.3180  0.1889
 1600POPC   C3B17765  25.034  12.956   5.774  0.1241  0.2061 -0.3227
 1600POPC   C4B17766  25.219  12.894   6.255 -0.0686  0.0371 -0.1933
 1601POPC   NC317767  14.527  20.576   3.282 -0.0521  0.1640 -0.3647
 1601POPC   PO417768  14.823  20.306   3.335  0.1237  0.1368 -0.1327
 1601POPC   GL117769  14.817  20.113   3.714  0.4156 -0.1433 -0.4236
 1601POPC   GL217770  14.618  19.929   3.658  0.1715 -0.3295 -0.0917
 1601POPC   C1A17771  15.012  20.045   4.052  0.3272  0.0890 -0.1392
 1601POPC   D2A17772  15.032  20.040   4.548 -0.0344  0.2683 -0.0107
 1601POPC   C3A17773  14.768  20.150   4.968  0.0685  0.2375  0.1335
 1601POPC   C4A17774  14.535  20.298   5.386  0.3720 -0.0040  0.2633
 1601POPC   C1B17775  14.608  19.738   3.964  0.2202 -0.2501 -0.1777
 1601POPC   C2B17776  14.644  19.509   4.307 -0.1532  0.0582  0.0666
 1601POPC   C3B17777  14.677  19.453   4.764  0.2586 -0.0604  0.0110
 1601POPC   C4B17778  14.570  19.338   5.231  0.1525  0.0193 -0.1874
 1602POPC   NC317779   4.794   7.652   2.852  0.3306  0.3071  0.0691
 1602POPC   PO417780   4.521   7.879   2.709 -0.0266 -0.5012 -0.0633
 1602POPC   GL117781   4.511   7.912   3.117  0.1222  0.0591 -0.1944
 1602POPC   GL217782   4.714   8.112   3.217  0.0816 -0.0959  0.4421
 1602POPC   C1A17783   4.324   7.698   3.451  0.0081  0.2976 -0.2945
 1602POPC   D2A17784   4.116   7.467   3.890 -0.0862  0.1678  0.0599
 1602POPC   C3A17785   3.762   7.462   4.195 -0.0221  0.3375  0.3058
 1602POPC   C4A17786   3.909   7.405   4.662 -0.1350 -0.1593 -0.0313
 1602POPC   C1B17787   4.451   8.167   3.499 -0.0066  0.2262  0.0183
 1602POPC   C2B17788   4.439   8.200   3.993 -0.0730  0.0833 -0.1415
 1602POPC   C3B17789   4.349   8.267   4.463  0.0478  0.1684 -0.1430
 1602POPC   C4B17790   4.105   8.405   4.895  0.0748  0.3060 -0.0326
 1603POPC   NC317791  18.786   6.848   3.215 -0.1154 -0.2387  0.4260
 1603POPC   PO417792  18.661   6.476   3.268  0.0894 -0.0622  0.0616
 1603POPC   GL117793  18.607   6.321   3.670 -0.0436  0.0960  0.1012
 1603POPC   GL217794  18.884   6.421   3.694  0.2087 -0.1016  0.0566
 1603POPC   C1A17795  18.572   6.424   4.023  0.0280 -0.0811 -0.1289
 1603POPC   D2A17796  18.501   6.669   4.444  0.0871  0.0174 -0.1574
 1603POPC   C3A17797  18.727   7.043   4.633  0.0423 -0.0676 -0.1637
 1603POPC   C4A17798  18.502   7.338   4.994  0.0153 -0.1244  0.0766
 1603POPC   C1B17799  19.007   6.467   4.053 -0.2297 -0.3329  0.0116
 1603POPC   C2B17800  18.949   6.368   4.464  0.5004 -0.1698 -0.0090
 1603POPC   C3B17801  19.010   6.242   4.965 -0.1783 -0.3821 -0.2600
 1603POPC   C4B17802  19.180   5.967   5.311 -0.1419  0.0543  0.0182
 1604POPC   NC317803   8.435  21.985   3.010 -0.1704  0.0623 -0.0613
 1604POPC   PO417804   8.519  22.138   3.336  0.3210  0.0082 -0.5472
 1604POPC   GL117805   8.522  21.936   3.767 -0.1966  0.2493 -0.1759
 1604POPC   GL217806   8.226  21.936   3.734  0.0756  0.3087  0.1341
 1604POPC   C1A17807   8.736  21.830   4.158  0.2045  0.0655  0.1160
 1604POPC   D2A17808   8.857  21.980   4.643  0.0657  0.0997 -0.4844
 1604POPC   C3A17809   8.975  21.900   5.070 -0.2136  0.1607  0.0688
 1604POPC   C4A17810   9.487  21.769   5.153  0.2530  0.0220 -0.1138
 1604POPC   C1B17811   8.095  21.716   3.984  0.3914 -0.1193  0.1887
 1604POPC   C2B17812   8.006  21.604   4.409  0.0787  0.0113  0.3091
 1604POPC   C3B17813   8.115  21.357   4.813 -0.0756 -0.1507  0.0913
 1604POPC   C4B17814   8.452  21.067   5.149 -0.0064  0.2411  0.1753
 1605POPC   NC317815  14.893  10.360   2.884 -0.0032  0.1123 -0.1408
 1605POPC   PO417816  14.914  10.742   2.860 -0.2332 -0.2360 -0.0027
 1605POPC   GL117817  15.008  10.889   3.294 -0.0550  0.1723 -0.2542
 1605POPC   GL217818  14.814  11.072   3.312  0.0531 -0.3330  0.3786
 1605POPC   C1A17819  15.013  10.773   3.693  0.1574  0.1190 -0.2540
 1605POPC   D2A17820  14.907  10.765   4.177  0.0459  0.3302 -0.0266
 1605POPC   C3A17821  14.784  10.749   4.606  0.0863 -0.3809  0.2977
 1605POPC   C4A17822  14.722  10.697   5.097  0.1588 -0.0156  0.1124
 1605POPC   C1B17823  14.644  11.111   3.598  0.1646  0.1438  0.0405
 1605POPC   C2B17824  14.423  10.954   3.936  0.1917 -0.1863 -0.0333
 1605POPC   C3B17825  14.311  10.739   4.373 -0.3752 -0.0676  0.1057
 1605POPC   C4B17826  14.131  10.283   4.473  0.0821  0.2002  0.0977
 1606POPC   NC317827   1.960  17.804   3.719  0.2427 -0.3544 -0.1154
 1606POPC   PO417828   1.704  17.513   3.797  0.1746 -0.1363 -0.1298
 1606POPC   GL117829   1.529  17.247   4.066 -0.0409  0.2170  0.0631
 1606POPC   GL217830   1.799  17.235   4.266  0.1036 -0.1271 -0.4066
 1606POPC   C1A17831   1.307  17.247   4.475 -0.2898 -0.0657  0.0812
 1606POPC   D2A17832   1.268  17.553   4.839  0.0662  0.1435 -0.1487
 1606POPC   C3A17833   1.060  17.681   5.231 -0.4192  0.0240  0.0591
 1606POPC   C4A17834   1.075  18.164   5.368  0.1379  0.2302  0.0446
 1606POPC   C1B17835   1.679  17.433   4.590 -0.0933  0.1408 -0.2182
 1606POPC   C2B17836   1.810  17.695   4.900 -0.1616 -0.1136 -0.1941
 1606POPC   C3B17837   1.998  17.657   5.349 -0.0194  0.2048 -0.0665
 1606POPC   C4B17838   2.280  17.610   5.760  0.1772  0.1720 -0.3132
 1607POPC   NC317839  10.539  23.028   3.364  0.1032  0.1939  0.4707
 1607POPC   PO417840  10.161  22.916   3.276  0.1589  0.1089 -0.2365
 1607POPC   GL117841   9.860  22.678   3.474 -0.0293 -0.1534 -0.1450
 1607POPC   GL217842  10.079  22.458   3.483  0.0352  0.2062 -0.1286
 1607POPC   C1A17843   9.775  22.687   3.940  0.0866  0.0978 -0.0498
 1607POPC   D2A17844   9.684  22.747   4.497 -0.0425 -0.3035 -0.1172
 1607POPC   C3A17845   9.823  22.837   4.924 -0.0114 -0.0187  0.4791
 1607POPC   C4A17846   9.953  23.037   5.358 -0.0335  0.0510 -0.2031
 1607POPC   C1B17847  10.088  22.358   3.826  0.6690 -0.1098 -0.0328
 1607POPC   C2B17848  10.099  22.347   4.235  0.0417 -0.1892  0.2173
 1607POPC   C3B17849  10.031  22.445   4.688 -0.0794  0.1179  0.0606
 1607POPC   C4B17850  10.081  22.523   5.209  0.0712 -0.3718  0.0984
 1608POPC   NC317851  19.727  24.276   3.905 -0.2097 -0.0333 -0.0924
 1608POPC   PO417852  19.323  24.347   3.913 -0.1918  0.1510  0.0376
 1608POPC   GL117853  19.298  24.702   4.005  0.0606  0.0516 -0.1388
 1608POPC   GL217854  19.233  24.650   4.335  0.0058  0.2710 -0.2245
 1608POPC   C1A17855  19.082  24.997   3.742 -0.0364  0.0096 -0.0583
 1608POPC   D2A17856  18.612  25.242   3.628 -0.3626  0.1215 -0.1726
 1608POPC   C3A17857  18.527  25.251   4.100  0.2071 -0.2989 -0.0156
 1608POPC   C4A17858  18.392  25.232   4.581 -0.0577 -0.1973  0.1287
 1608POPC   C1B17859  18.978  24.533   4.585 -0.3787  0.2008 -0.0004
 1608POPC   C2B17860  18.835  24.516   4.917 -0.4276  0.0647  0.0755
 1608POPC   C3B17861  18.582  24.840   5.077 -0.0545 -0.0696  0.1726
 1608POPC   C4B17862  18.556  25.365   5.145 -0.4668 -0.0091 -0.1293
 1609POPC   NC317863  26.119  22.362   3.516  0.2440  0.0318  0.2355
 1609POPC   PO417864  26.080  21.972   3.332 -0.0512 -0.2817 -0.0540
 1609POPC   GL117865  25.816  21.646   3.564 -0.2251  0.0148 -0.4231
 1609POPC   GL217866  26.048  21.667   3.735 -0.0015  0.1687  0.0441
 1609POPC   C1A17867  25.548  21.621   3.932 -0.0692 -0.0898 -0.3508
 1609POPC   D2A17868  25.362  21.612   4.371  0.1585 -0.1154  0.0758
 1609POPC   C3A17869  25.595  21.781   4.793 -0.0076 -0.0233  0.1676
 1609POPC   C4A17870  25.367  21.722   5.235  0.1444  0.2941 -0.1186
 1609POPC   C1B17871  26.045  21.459   4.051  0.3652  0.3566  0.0282
 1609POPC   C2B17872  25.856  21.482   4.450  0.1384  0.0446  0.2446
 1609POPC   C3B17873  26.061  21.460   4.877  0.2110 -0.2078  0.0122
 1609POPC   C4B17874  26.344  21.182   5.214 -0.1370 -0.0661  0.0846
 1610POPC   NC317875  24.454  18.355   3.787  0.0719 -0.2303  0.0811
 1610POPC   PO417876  24.693  18.385   3.439 -0.0270 -0.1556  0.1488
 1610POPC   GL117877  24.981  17.995   3.625  0.2059  0.4495  0.0932
 1610POPC   GL217878  24.631  17.956   3.687 -0.1090 -0.0755  0.1035
 1610POPC   C1A17879  25.259  17.638   3.642 -0.5353  0.0170  0.0032
 1610POPC   D2A17880  25.353  17.366   4.060 -0.0629 -0.0100  0.5841
 1610POPC   C3A17881  25.148  17.090   4.365 -0.0486 -0.1038 -0.1917
 1610POPC   C4A17882  25.022  17.217   4.777  0.0633  0.1011 -0.1670
 1610POPC   C1B17883  24.514  17.973   4.036  0.0066 -0.4503  0.0533
 1610POPC   C2B17884  24.497  18.056   4.452  0.1824 -0.2901  0.1691
 1610POPC   C3B17885  24.429  18.164   4.908 -0.0748  0.0448  0.2741
 1610POPC   C4B17886  24.514  18.332   5.418 -0.0833  0.0567 -0.2358
 1611POPC   NC317887  12.698  16.463   2.936 -0.1185 -0.1374  0.2642
 1611POPC   PO417888  12.478  16.278   3.256  0.1517 -0.1338  0.2263
 1611POPC   GL117889  12.535  16.329   3.687 -0.1371  0.1052 -0.0366
 1611POPC   GL217890  12.697  16.572   3.655 -0.5205  0.3200 -0.0255
 1611POPC   C1A17891  12.345  16.147   4.075  0.3749  0.2130 -0.0220
 1611POPC   D2A17892  12.288  15.965   4.535  0.2395  0.0540  0.4222
 1611POPC   C3A17893  12.280  16.157   4.943 -0.0048  0.0439  0.3330
 1611POPC   C4A17894  12.099  15.992   5.374 -0.0857  0.0338  0.1345
 1611POPC   C1B17895  12.737  16.713   4.086 -0.0149 -0.0628  0.1565
 1611POPC   C2B17896  12.940  16.707   4.450 -0.0045  0.0174 -0.2809
 1611POPC   C3B17897  13.056  16.580   4.842  0.1278 -0.2406  0.0658
 1611POPC   C4B17898  13.168  16.426   5.300  0.2534 -0.1336  0.0372
 1612POPC   NC317899   3.241   6.255   3.564 -0.1442  0.2189  0.0787
 1612POPC   PO417900   3.247   5.840   3.641  0.3545 -0.1065 -0.0010
 1612POPC   GL117901   3.326   5.905   4.067 -0.0043  0.0674 -0.2266
 1612POPC   GL217902   3.038   5.988   4.056  0.0922 -0.0566  0.0420
 1612POPC   C1A17903   3.434   5.773   4.425  0.1120 -0.0434  0.1871
 1612POPC   D2A17904   3.625   5.588   4.819 -0.0814 -0.2374 -0.2186
 1612POPC   C3A17905   3.790   5.366   5.182  0.1641 -0.0910  0.1680
 1612POPC   C4A17906   3.796   4.841   5.354 -0.1761 -0.3189  0.1846
 1612POPC   C1B17907   3.042   5.984   4.431  0.0620  0.1347  0.1544
 1612POPC   C2B17908   3.028   6.017   4.817 -0.1213 -0.0163 -0.0910
 1612POPC   C3B17909   2.782   6.045   5.267 -0.0998  0.1690  0.1603
 1612POPC   C4B17910   2.464   6.007   5.630  0.0586 -0.1821 -0.1967
 1613POPC   NC317911  23.599   9.495   3.287  0.0361 -0.2928 -0.2864
 1613POPC   PO417912  23.958   9.599   3.217  0.4731 -0.1442  0.1475
 1613POPC   GL117913  24.127   9.485   3.545  0.0065 -0.0347 -0.1895
 1613POPC   GL217914  23.953   9.237   3.542  0.1515  0.1927  0.1207
 1613POPC   C1A17915  24.271   9.626   3.903 -0.0213 -0.0930 -0.2779
 1613POPC   D2A17916  24.144   9.738   4.368 -0.1855  0.4184 -0.0304
 1613POPC   C3A17917  24.067   9.897   4.813  0.2402 -0.0253  0.2059
 1613POPC   C4A17918  23.781   9.983   5.181  0.2645 -0.3761  0.3335
 1613POPC   C1B17919  23.791   9.106   3.873  0.1406  0.1838 -0.0975
 1613POPC   C2B17920  23.515   9.117   4.196  0.3779  0.2635 -0.1650
 1613POPC   C3B17921  23.475   9.222   4.658  0.3034 -0.0608 -0.1914
 1613POPC   C4B17922  23.401   9.250   5.145 -0.0684  0.2917 -0.1047
 1614POPC   NC317923  11.649  22.628   3.553 -0.1591  0.3444  0.2118
 1614POPC   PO417924  11.314  22.460   3.628 -0.1125 -0.0204  0.2701
 1614POPC   GL117925  11.266  22.226   3.945 -0.2448 -0.3994  0.2345
 1614POPC   GL217926  11.185  22.479   4.043 -0.1571 -0.0191 -0.1854
 1614POPC   C1A17927  11.195  21.800   4.067 -0.0557 -0.2532 -0.3799
 1614POPC   D2A17928  11.080  21.612   4.568 -0.2005  0.0485  0.1910
 1614POPC   C3A17929  10.779  21.747   4.963  0.1182  0.0100  0.1055
 1614POPC   C4A17930  10.530  21.469   5.260  0.0686  0.1398 -0.1383
 1614POPC   C1B17931  11.316  22.661   4.380  0.1223 -0.1107 -0.1062
 1614POPC   C2B17932  11.249  22.747   4.815  0.0075 -0.0646  0.2457
 1614POPC   C3B17933  11.103  22.893   5.201 -0.0211 -0.2144  0.0108
 1614POPC   C4B17934  10.973  22.830   5.636  0.1788  0.1840  0.0164
 1615POPC   NC317935   3.276   4.831   3.722  0.2448  0.1842 -0.1555
 1615POPC   PO417936   3.288   4.420   3.656  0.3426  0.2099  0.1462
 1615POPC   GL117937   3.375   4.287   4.029  0.1331  0.0404 -0.2289
 1615POPC   GL217938   3.287   4.536   4.141 -0.2620 -0.0971  0.0548
 1615POPC   C1A17939   3.190   3.985   4.305  0.2461  0.0334  0.0119
 1615POPC   D2A17940   2.869   3.584   4.343  0.0839 -0.0702 -0.2027
 1615POPC   C3A17941   2.482   3.523   4.551 -0.2129  0.1792  0.2295
 1615POPC   C4A17942   2.353   3.595   5.011 -0.3346 -0.0926 -0.1100
 1615POPC   C1B17943   3.500   4.548   4.405 -0.0073 -0.2936 -0.1622
 1615POPC   C2B17944   3.885   4.478   4.577  0.1020  0.3400 -0.2603
 1615POPC   C3B17945   4.136   4.740   4.938  0.1996  0.2048  0.2513
 1615POPC   C4B17946   4.261   4.993   5.306  0.2726  0.1523 -0.0260
 1616POPC   NC317947   4.700   2.951   3.376  0.2262  0.0077  0.1819
 1616POPC   PO417948   4.749   3.321   3.405  0.0315  0.1998  0.2369
 1616POPC   GL117949   4.573   3.330   3.831 -0.2433  0.2960  0.0320
 1616POPC   GL217950   4.603   3.012   3.874 -0.0154 -0.1930 -0.2553
 1616POPC   C1A17951   4.947   3.550   3.988 -0.3379 -0.3391 -0.4355
 1616POPC   D2A17952   5.181   3.705   4.437  0.2943  0.0614  0.0028
 1616POPC   C3A17953   5.417   3.767   4.804 -0.1053  0.0721  0.2282
 1616POPC   C4A17954   5.268   3.858   5.198  0.0533  0.0537 -0.0378
 1616POPC   C1B17955   4.776   3.018   4.177  0.0468 -0.1672  0.0238
 1616POPC   C2B17956   4.917   3.131   4.506  0.0051 -0.0127  0.3205
 1616POPC   C3B17957   5.145   3.281   4.893 -0.0968  0.4343  0.4609
 1616POPC   C4B17958   5.279   3.391   5.317  0.1338  0.0270 -0.1111
 1617POPC   NC317959  23.561  14.193   2.885  0.1251  0.0426 -0.2292
 1617POPC   PO417960  23.404  14.203   3.248 -0.2483  0.4786 -0.0560
 1617POPC   GL117961  23.381  14.368   3.638 -0.0553 -0.0800  0.2600
 1617POPC   GL217962  23.608  14.403   3.774 -0.0007  0.5181  0.2120
 1617POPC   C1A17963  23.090  14.377   3.913 -0.4041  0.2665  0.2044
 1617POPC   D2A17964  23.254  14.271   4.399 -0.1403 -0.3966  0.3746
 1617POPC   C3A17965  23.047  14.422   4.760  0.1370 -0.0939 -0.1351
 1617POPC   C4A17966  22.892  14.633   5.177 -0.0198  0.2152  0.0568
 1617POPC   C1B17967  23.582  14.604   4.049 -0.3366  0.2036  0.1240
 1617POPC   C2B17968  23.716  14.761   4.419  0.1268 -0.1246  0.3663
 1617POPC   C3B17969  23.924  14.800   4.875  0.1825 -0.0720 -0.1268
 1617POPC   C4B17970  23.833  14.817   5.367 -0.3626  0.0270 -0.0681
 1618POPC   NC317971  24.653   9.619   3.601  0.0391  0.0114 -0.0266
 1618POPC   PO417972  25.026   9.493   3.653 -0.1511  0.2957 -0.2665
 1618POPC   GL117973  25.223   9.268   3.951  0.0323 -0.2565  0.1771
 1618POPC   GL217974  25.373   9.341   4.091 -0.0170  0.2325 -0.2345
 1618POPC   C1A17975  24.912   9.031   4.276  0.0542 -0.2407 -0.3773
 1618POPC   D2A17976  24.895   8.668   4.590  0.3098  0.0933 -0.0353
 1618POPC   C3A17977  24.694   8.598   4.952 -0.1640 -0.0550 -0.0799
 1618POPC   C4A17978  24.826   8.699   5.409  0.0962 -0.1796  0.0204
 1618POPC   C1B17979  25.490   9.046   4.232  0.2568  0.0363  0.0987
 1618POPC   C2B17980  25.348   9.011   4.590  0.1059 -0.0522 -0.0371
 1618POPC   C3B17981  25.178   8.890   5.021 -0.2610 -0.2715  0.2657
 1618POPC   C4B17982  25.375   8.691   5.379  0.1782  0.1350  0.0002
 1619POPC   NC317983   5.581   2.775   3.496 -0.2092 -0.4599 -0.1932
 1619POPC   PO417984   5.331   2.464   3.479 -0.0677 -0.0794  0.0776
 1619POPC   GL117985   5.097   2.353   3.847  0.0681 -0.2357 -0.4391
 1619POPC   GL217986   5.309   2.192   3.888  0.0161  0.0095 -0.1568
 1619POPC   C1A17987   5.049   2.610   4.237 -0.2649  0.0220 -0.0269
 1619POPC   D2A17988   5.440   2.832   4.495 -0.1085 -0.0105  0.3235
 1619POPC   C3A17989   5.694   2.756   4.846  0.0830 -0.0664 -0.0178
 1619POPC   C4A17990   5.819   2.566   5.276  0.2831 -0.2315  0.1726
 1619POPC   C1B17991   5.449   2.190   4.250 -0.3339  0.2375  0.3590
 1619POPC   C2B17992   5.470   2.334   4.633  0.2417  0.1544  0.0644
 1619POPC   C3B17993   5.414   2.317   5.116 -0.0915  0.1946  0.1193
 1619POPC   C4B17994   5.499   2.315   5.568 -0.2279 -0.0407  0.1544
 1620POPC   NC317995  16.376  16.643   3.688 -0.0743 -0.2263 -0.0017
 1620POPC   PO417996  16.479  16.967   3.450  0.1500  0.2241 -0.3651
 1620POPC   GL117997  16.161  17.134   3.642 -0.7331  0.0543 -0.3775
 1620POPC   GL217998  16.482  17.229   3.823  0.2339  0.0974  0.2237
 1620POPC   C1A17999  15.714  17.051   3.899  0.1272  0.3078 -0.0453
 1620POPC   D2A18000  15.489  17.487   4.082 -0.1473  0.0380  0.2139
 1620POPC   C3A18001  15.492  17.265   4.531  0.2052 -0.0197  0.2694
 1620POPC   C4A18002  15.697  17.179   4.940  0.0536  0.1039 -0.1613
 1620POPC   C1B18003  16.554  17.076   4.147 -0.1627  0.2481  0.2178
 1620POPC   C2B18004  16.579  16.894   4.517 -0.2181 -0.0523  0.2277
 1620POPC   C3B18005  16.494  16.770   4.989  0.0189  0.1253  0.0422
 1620POPC   C4B18006  16.027  16.777   5.177 -0.1465  0.0072  0.0920
 1621POPC   NC318007  21.793   8.807   3.280  0.3256 -0.0802 -0.1359
 1621POPC   PO418008  21.593   9.137   3.370  0.0522 -0.2115  0.1862
 1621POPC   GL118009  21.415   9.166   3.766  0.3121 -0.0510 -0.0725
 1621POPC   GL218010  21.595   9.013   3.846  0.1771 -0.3208 -0.0891
 1621POPC   C1A18011  21.020   9.104   3.936 -0.1821  0.1351  0.0429
 1621POPC   D2A18012  20.702   8.899   4.249  0.0161  0.0525 -0.1515
 1621POPC   C3A18013  20.453   9.095   4.551 -0.1615 -0.0557 -0.1638
 1621POPC   C4A18014  20.078   9.301   4.760 -0.0438  0.4931 -0.3828
 1621POPC   C1B18015  21.382   8.881   4.121  0.2396  0.2262  0.1433
 1621POPC   C2B18016  21.124   8.736   4.413  0.0649  0.2113 -0.1134
 1621POPC   C3B18017  20.760   8.662   4.804  0.0942  0.1991 -0.1094
 1621POPC   C4B18018  20.345   8.689   4.954  0.0970 -0.1818 -0.0986
 1622POPC   NC318019  20.235   5.543   3.609  0.0710  0.0171 -0.1159
 1622POPC   PO418020  20.375   5.955   3.566  0.2349 -0.3489 -0.0708
 1622POPC   GL118021  20.580   6.133   3.935  0.1223  0.0874 -0.2836
 1622POPC   GL218022  20.633   5.879   3.945  0.2285  0.0539  0.0466
 1622POPC   C1A18023  20.457   6.329   4.303  0.0131 -0.0092 -0.2841
 1622POPC   D2A18024  19.943   6.500   4.270 -0.0780  0.3008 -0.0742
 1622POPC   C3A18025  19.527   6.761   4.400 -0.0890 -0.0152  0.0154
 1622POPC   C4A18026  19.086   6.833   4.306 -0.1547 -0.3032  0.2911
 1622POPC   C1B18027  20.535   5.598   4.182  0.2309  0.2925 -0.0686
 1622POPC   C2B18028  20.529   5.471   4.597 -0.2234  0.0568 -0.0118
 1622POPC   C3B18029  20.385   5.360   4.958 -0.3273  0.0457  0.1094
 1622POPC   C4B18030  20.109   5.275   5.305 -0.1635  0.0435  0.0700
 1623POPC   NC318031  14.716   9.893   3.552 -0.0979 -0.1965 -0.2782
 1623POPC   PO418032  14.326  10.013   3.646 -0.1297 -0.0303  0.0236
 1623POPC   GL118033  14.171  10.000   4.095  0.1738  0.4929  0.1375
 1623POPC   GL218034  14.296   9.698   4.090 -0.2043 -0.1506  0.1867
 1623POPC   C1A18035  14.216   9.799   4.535  0.0169  0.1214  0.0012
 1623POPC   D2A18036  14.116   9.908   5.013 -0.0271 -0.0292  0.0575
 1623POPC   C3A18037  14.017   9.961   5.400 -0.0853  0.4747 -0.0520
 1623POPC   C4A18038  13.619  10.274   5.549  0.0575  0.0078  0.1653
 1623POPC   C1B18039  14.473   9.446   4.351 -0.1018  0.2221 -0.1025
 1623POPC   C2B18040  14.601   9.356   4.741 -0.0164  0.0264 -0.3493
 1623POPC   C3B18041  14.887   9.201   5.088 -0.2047 -0.2332 -0.2402
 1623POPC   C4B18042  15.309   9.031   5.140 -0.0139 -0.0090  0.1381
 1624POPC   NC318043  23.483   8.324   3.469  0.1508 -0.0609  0.3771
 1624POPC   PO418044  23.175   8.072   3.430  0.0453  0.1915 -0.1174
 1624POPC   GL118045  23.130   7.594   3.636 -0.0068  0.2328 -0.0239
 1624POPC   GL218046  23.434   7.592   3.595 -0.1857  0.0151 -0.1766
 1624POPC   C1A18047  22.995   7.588   4.042  0.1487  0.2096  0.0664
 1624POPC   D2A18048  22.907   7.776   4.511  0.0217  0.0906  0.1044
 1624POPC   C3A18049  22.661   8.016   4.842  0.0821  0.2182 -0.2056
 1624POPC   C4A18050  22.954   7.913   5.206 -0.0922 -0.0412  0.4204
 1624POPC   C1B18051  23.560   7.545   3.984  0.2035 -0.1743  0.3316
 1624POPC   C2B18052  23.519   7.702   4.397  0.1153  0.1473 -0.0738
 1624POPC   C3B18053  23.475   7.887   4.860 -0.2490 -0.1090 -0.1106
 1624POPC   C4B18054  23.395   8.066   5.248  0.2252 -0.0811  0.0764
 1625POPC   NC318055   2.922   9.888   3.369 -0.0402  0.1633  0.0038
 1625POPC   PO418056   2.538   9.692   3.386 -0.4911 -0.0886 -0.2238
 1625POPC   GL118057   2.264   9.593   3.707 -0.1214 -0.2278  0.3281
 1625POPC   GL218058   2.377   9.342   3.753 -0.1011  0.1123  0.1981
 1625POPC   C1A18059   1.898   9.560   4.012 -0.1189 -0.1039 -0.0621
 1625POPC   D2A18060   1.885   9.833   4.425  0.0838  0.1397 -0.1733
 1625POPC   C3A18061   1.844   9.804   4.921  0.0575 -0.1246  0.0164
 1625POPC   C4A18062   1.708   9.910   5.371 -0.2392 -0.2670 -0.2386
 1625POPC   C1B18063   2.492   9.338   4.104 -0.0408 -0.1291  0.0070
 1625POPC   C2B18064   2.636   9.315   4.493  0.1223  0.0246 -0.0655
 1625POPC   C3B18065   2.436   8.964   4.808 -0.0870 -0.2534 -0.1104
 1625POPC   C4B18066   2.024   8.717   4.737  0.1705  0.0034 -0.3290
 1626POPC   NC318067  11.245  19.528   3.273 -0.1748 -0.1279 -0.2972
 1626POPC   PO418068  11.079  19.174   3.329 -0.0012 -0.0376 -0.0348
 1626POPC   GL118069  10.986  19.120   3.730 -0.1123  0.1391  0.0026
 1626POPC   GL218070  10.922  19.352   3.823  0.0440 -0.1141 -0.1993
 1626POPC   C1A18071  11.111  18.791   3.987 -0.1225  0.0794  0.0656
 1626POPC   D2A18072  11.377  18.738   4.492  0.0587  0.0199  0.3812
 1626POPC   C3A18073  11.660  18.603   4.771 -0.0010 -0.1776  0.0018
 1626POPC   C4A18074  11.364  18.658   5.220  0.0989 -0.3535 -0.2311
 1626POPC   C1B18075  11.011  19.393   4.160  0.2802 -0.0437 -0.1488
 1626POPC   C2B18076  11.270  19.679   4.311  0.2766 -0.1435  0.0938
 1626POPC   C3B18077  11.397  19.687   4.743  0.3522  0.0823 -0.0836
 1626POPC   C4B18078  11.465  19.678   5.198 -0.0860 -0.1516 -0.0185
 1627POPC   NC318079   9.190   2.008   2.991 -0.0622  0.2763  0.1047
 1627POPC   PO418080   8.971   1.818   3.231 -0.0276  0.1711  0.0832
 1627POPC   GL118081   8.637   1.987   3.579 -0.0379 -0.2939 -0.2341
 1627POPC   GL218082   8.938   2.149   3.542 -0.3597 -0.0738 -0.3725
 1627POPC   C1A18083   8.654   2.010   4.001 -0.0125 -0.1679  0.2835
 1627POPC   D2A18084   8.583   1.916   4.461  0.1984 -0.1647 -0.1743
 1627POPC   C3A18085   8.448   2.026   4.885  0.1170  0.0288 -0.0796
 1627POPC   C4A18086   8.432   2.412   5.245  0.1893 -0.1660 -0.1445
 1627POPC   C1B18087   9.089   2.148   3.920  0.4423 -0.1762  0.1588
 1627POPC   C2B18088   9.078   1.967   4.319 -0.0846 -0.1933  0.0536
 1627POPC   C3B18089   9.009   2.100   4.776  0.4183 -0.2943  0.2008
 1627POPC   C4B18090   9.194   1.779   5.076 -0.3374  0.0504 -0.1107
 1628POPC   NC318091   4.332  22.013   4.061  0.0725  0.2697 -0.4543
 1628POPC   PO418092   4.061  22.245   3.848  0.2077  0.0519  0.0318
 1628POPC   GL118093   3.962  22.367   4.235  0.1567  0.2086  0.0601
 1628POPC   GL218094   4.270  22.447   4.294 -0.2262 -0.4923 -0.0405
 1628POPC   C1A18095   3.700  22.311   4.543 -0.4128  0.3573  0.3082
 1628POPC   D2A18096   3.975  22.092   4.962  0.1050  0.2778  0.0802
 1628POPC   C3A18097   4.273  21.858   5.073  0.3098  0.0723 -0.0917
 1628POPC   C4A18098   4.627  21.649   4.808 -0.0555 -0.0347 -0.1082
 1628POPC   C1B18099   4.136  22.547   4.562 -0.0013 -0.0294 -0.3530
 1628POPC   C2B18100   3.982  22.584   4.931 -0.0170 -0.0407  0.2846
 1628POPC   C3B18101   3.796  22.737   5.373  0.3157 -0.1141  0.2055
 1628POPC   C4B18102   3.570  23.028   5.694 -0.0244 -0.1313 -0.1166
 1629POPC   NC318103   2.168   8.875   3.615 -0.1267 -0.2421 -0.1657
 1629POPC   PO418104   2.489   8.660   3.516 -0.0444  0.2596 -0.1472
 1629POPC   GL118105   2.597   8.455   4.005  0.0852 -0.1554  0.0284
 1629POPC   GL218106   2.337   8.679   4.009  0.6278 -0.6192 -0.0533
 1629POPC   C1A18107   2.825   8.607   4.338 -0.0814  0.3857  0.1528
 1629POPC   D2A18108   2.941   8.934   4.658  0.4603 -0.6787 -0.0108
 1629POPC   C3A18109   2.879   9.307   4.918 -0.0719  0.2929  0.1852
 1629POPC   C4A18110   3.080   9.532   5.288 -0.0268  0.2654 -0.3126
 1629POPC   C1B18111   2.254   8.939   4.262 -0.0988 -0.0325  0.4681
 1629POPC   C2B18112   2.126   9.260   4.414  0.0238  0.1941 -0.3935
 1629POPC   C3B18113   2.228   9.584   4.725 -0.1209  0.1374 -0.0645
 1629POPC   C4B18114   2.363   9.343   5.119  0.2433  0.0367  0.1734
 1630POPC   NC318115  10.618  25.217   3.551 -0.3344 -0.1715 -0.2521
 1630POPC   PO418116  10.751  24.835   3.463  0.0590 -0.3718 -0.0469
 1630POPC   GL118117  10.896  24.704   3.819 -0.0357  0.0823 -0.0578
 1630POPC   GL218118  10.828  24.881   3.972  0.0537  0.2203 -0.0055
 1630POPC   C1A18119  10.916  24.371   4.115  0.0260  0.1287 -0.1076
 1630POPC   D2A18120  10.847  24.455   4.650  0.1193  0.0525  0.1045
 1630POPC   C3A18121  10.624  24.416   5.049 -0.5354  0.1851 -0.3624
 1630POPC   C4A18122  10.416  24.402   5.511 -0.1209  0.2142 -0.0788
 1630POPC   C1B18123  10.645  24.787   4.314 -0.0513  0.1515 -0.2172
 1630POPC   C2B18124  10.376  24.808   4.642 -0.0459 -0.0335 -0.1738
 1630POPC   C3B18125  10.393  24.829   5.111 -0.1680  0.2837  0.1203
 1630POPC   C4B18126  10.511  25.245   5.351 -0.1685  0.0367 -0.1604
 1631POPC   NC318127  22.726   7.832   3.469 -0.0265  0.4925  0.1829
 1631POPC   PO418128  22.313   7.946   3.566  0.0122  0.0802  0.0694
 1631POPC   GL118129  22.267   7.603   3.668 -0.3892  0.2094 -0.0253
 1631POPC   GL218130  22.529   7.640   3.876  0.1407 -0.0267 -0.0583
 1631POPC   C1A18131  21.941   7.516   3.999 -0.0039 -0.3226  0.0021
 1631POPC   D2A18132  21.666   7.640   4.462 -0.0037  0.3234 -0.3357
 1631POPC   C3A18133  21.286   7.350   4.501  0.0261  0.4086 -0.3764
 1631POPC   C4A18134  21.322   7.122   4.924 -0.2728 -0.1679  0.0842
 1631POPC   C1B18135  22.695   7.909   4.104  0.1760 -0.2098 -0.0244
 1631POPC   C2B18136  22.580   8.204   4.350  0.1753  0.0355  0.1439
 1631POPC   C3B18137  22.353   8.425   4.719  0.3205  0.4062  0.1184
 1631POPC   C4B18138  22.188   8.472   5.110  0.0140  0.4293  0.0880
 1632POPC   NC318139  17.449  21.964   3.851  0.3659 -0.0695  0.0087
 1632POPC   PO418140  17.569  21.561   3.927 -0.2722 -0.2494  0.1138
 1632POPC   GL118141  17.647  21.583   4.387 -0.1021 -0.0834  0.3171
 1632POPC   GL218142  17.390  21.329   4.388 -0.0153  0.0877  0.0423
 1632POPC   C1A18143  17.524  21.802   4.731  0.3682 -0.1264  0.4153
 1632POPC   D2A18144  17.859  22.183   4.777 -0.1392 -0.1552  0.0607
 1632POPC   C3A18145  18.205  22.091   5.026 -0.0412 -0.0994 -0.2239
 1632POPC   C4A18146  18.674  22.072   5.212  0.0763 -0.1336  0.0979
 1632POPC   C1B18147  17.255  21.044   4.634 -0.3063 -0.4552  0.0554
 1632POPC   C2B18148  17.025  20.941   4.929  0.2023  0.0010 -0.1212
 1632POPC   C3B18149  16.982  21.030   5.394 -0.2469  0.2285 -0.3259
 1632POPC   C4B18150  16.942  21.216   5.845 -0.1382 -0.2619 -0.1710
 1633POPC   NC318151   2.432  15.737   2.905 -0.0601 -0.0047  0.2082
 1633POPC   PO418152   2.231  15.766   3.235 -0.2780  0.0850 -0.2364
 1633POPC   GL118153   2.364  15.673   3.643  0.1281  0.0285 -0.0279
 1633POPC   GL218154   2.599  15.702   3.547 -0.3010  0.2469  0.2780
 1633POPC   C1A18155   2.215  15.334   3.910 -0.0014 -0.1252  0.2202
 1633POPC   D2A18156   2.217  15.051   4.324  0.1362 -0.0750 -0.0368
 1633POPC   C3A18157   2.168  14.755   4.693 -0.3268  0.0862  0.1442
 1633POPC   C4A18158   2.033  14.332   4.998 -0.0059  0.0687 -0.2978
 1633POPC   C1B18159   2.767  15.518   3.770 -0.3857  0.1275  0.1045
 1633POPC   C2B18160   3.043  15.365   4.058 -0.0162  0.0602 -0.0967
 1633POPC   C3B18161   3.044  15.289   4.549  0.1060 -0.3615  0.1474
 1633POPC   C4B18162   3.041  15.285   5.004 -0.0524  0.2336 -0.0432
 1634POPC   NC318163   1.287  21.585   3.544 -0.2424  0.1028 -0.1502
 1634POPC   PO418164   0.930  21.586   3.688  0.2899 -0.3025 -0.1810
 1634POPC   GL118165   0.667  21.450   3.994 -0.1897 -0.1402 -0.0171
 1634POPC   GL218166   0.888  21.280   4.074  0.0383 -0.1271  0.0438
 1634POPC   C1A18167   0.641  21.685   4.396 -0.0545  0.2352  0.1180
 1634POPC   D2A18168   0.387  21.850   4.779 -0.0539  0.0441  0.0817
 1634POPC   C3A18169   0.440  21.577   5.148 -0.0938  0.2398 -0.3510
 1634POPC   C4A18170   0.581  21.387   5.588  0.2322  0.3232  0.1786
 1634POPC   C1B18171   0.792  20.982   4.339 -0.2830 -0.1088 -0.0737
 1634POPC   C2B18172   0.644  20.780   4.715 -0.0206  0.0303  0.0210
 1634POPC   C3B18173   0.814  20.688   5.089 -0.1973  0.3592  0.0362
 1634POPC   C4B18174   0.877  20.596   5.622  0.0238  0.0710  0.1496
 1635POPC   NC318175  18.927  21.181   3.953 -0.1496 -0.0514  0.2889
 1635POPC   PO418176  18.565  21.229   4.112 -0.0867  0.0185 -0.1364
 1635POPC   GL118177  18.398  21.019   4.476 -0.4037  0.2820  0.3530
 1635POPC   GL218178  18.460  20.747   4.389 -0.0385 -0.4843  0.4820
 1635POPC   C1A18179  18.226  21.075   4.942 -0.0531  0.1189 -0.2176
 1635POPC   D2A18180  18.019  21.073   5.375  0.1649 -0.1931  0.1233
 1635POPC   C3A18181  17.926  20.650   5.325 -0.0250 -0.1150  0.0946
 1635POPC   C4A18182  17.835  20.096   5.459  0.1441  0.2475  0.3210
 1635POPC   C1B18183  18.363  20.603   4.709  0.0376 -0.0122 -0.3546
 1635POPC   C2B18184  18.064  20.442   4.956 -0.0828  0.0944 -0.1413
 1635POPC   C3B18185  17.677  20.233   5.041  0.3292  0.2410 -0.3000
 1635POPC   C4B18186  17.231  20.036   4.991  0.0684 -0.0343 -0.2058
 1636POPC   NC318187   2.765   2.675   2.923  0.1381 -0.1547  0.0623
 1636POPC   PO418188   2.832   2.756   3.331  0.1610  0.2159 -0.1546
 1636POPC   GL118189   2.739   3.030   3.685  0.0848  0.1067  0.4319
 1636POPC   GL218190   2.514   2.896   3.806  0.1416  0.5346  0.0054
 1636POPC   C1A18191   2.843   3.137   4.069  0.1679  0.1449  0.0617
 1636POPC   D2A18192   2.861   3.092   4.508  0.2442  0.1600 -0.1039
 1636POPC   C3A18193   3.159   3.108   4.797 -0.1964 -0.3233  0.1456
 1636POPC   C4A18194   3.654   3.181   4.959  0.0546  0.0486  0.0191
 1636POPC   C1B18195   2.372   2.754   4.184 -0.2147  0.2194  0.1685
 1636POPC   C2B18196   2.565   2.678   4.543 -0.2523  0.2280  0.1727
 1636POPC   C3B18197   2.833   2.721   4.934 -0.1091  0.0371  0.3240
 1636POPC   C4B18198   3.121   2.797   5.304  0.0926  0.3398 -0.2201
 1637POPC   NC318199  20.135   0.481   3.147  0.0539  0.0324 -0.1964
 1637POPC   PO418200  20.039   0.821   3.351  0.1741  0.0436 -0.0271
 1637POPC   GL118201  19.976   0.806   3.827  0.2964 -0.1277 -0.0697
 1637POPC   GL218202  19.767   0.550   3.787 -0.0156 -0.1655 -0.1756
 1637POPC   C1A18203  20.308   0.919   3.999 -0.1401  0.0705 -0.1841
 1637POPC   D2A18204  20.369   0.841   4.502 -0.1208  0.1184 -0.0272
 1637POPC   C3A18205  20.258   0.679   4.983 -0.0479 -0.0266 -0.0003
 1637POPC   C4A18206  19.866   0.625   5.333  0.0164 -0.1176  0.2457
 1637POPC   C1B18207  19.663   0.427   4.169  0.2590 -0.3747  0.1803
 1637POPC   C2B18208  19.588   0.436   4.596 -0.0767  0.1365  0.2924
 1637POPC   C3B18209  19.512   0.404   5.106 -0.1677 -0.0572  0.2530
 1637POPC   C4B18210  19.577   0.221   5.563  0.0908 -0.0082  0.1366
 1638POPC   NC318211   6.713   8.952   3.341 -0.0741  0.1831 -0.2533
 1638POPC   PO418212   6.790   8.701   3.656  0.1620  0.0310  0.0359
 1638POPC   GL118213   6.872   9.003   3.971 -0.1016  0.0096  0.3277
 1638POPC   GL218214   7.204   9.012   3.974  0.0858  0.2226 -0.1880
 1638POPC   C1A18215   6.599   8.984   4.314 -0.1619 -0.0128 -0.2624
 1638POPC   D2A18216   6.389   9.150   4.719 -0.0266  0.4143 -0.1726
 1638POPC   C3A18217   6.494   9.391   5.082 -0.2079  0.0038  0.2573
 1638POPC   C4A18218   6.652   9.318   5.528  0.0219  0.1100  0.0387
 1638POPC   C1B18219   7.286   9.217   4.288 -0.1932 -0.0315 -0.0727
 1638POPC   C2B18220   7.328   9.443   4.649 -0.2299 -0.0781 -0.0508
 1638POPC   C3B18221   7.621   9.509   5.013  0.1520  0.2758 -0.0702
 1638POPC   C4B18222   8.051   9.419   5.299 -0.1192 -0.0500 -0.3833
 1639POPC   NC318223  20.100  17.444   3.273  0.1742 -0.2377  0.2388
 1639POPC   PO418224  20.078  17.808   3.504  0.1015  0.0172 -0.1328
 1639POPC   GL118225  19.989  18.172   3.747  0.0662 -0.1790  0.0651
 1639POPC   GL218226  19.918  17.872   3.955  0.0682 -0.1558 -0.2738
 1639POPC   C1A18227  19.953  18.457   4.115 -0.0751 -0.0521  0.1622
 1639POPC   D2A18228  19.816  18.491   4.560  0.1747  0.0917 -0.2001
 1639POPC   C3A18229  19.675  18.342   5.006  0.2015  0.0053  0.1737
 1639POPC   C4A18230  19.426  18.082   5.386 -0.0542  0.1032 -0.3168
 1639POPC   C1B18231  19.958  17.975   4.303 -0.2829 -0.2838 -0.0028
 1639POPC   C2B18232  20.065  18.044   4.718 -0.0530 -0.0286  0.3716
 1639POPC   C3B18233  20.042  17.950   5.188  0.2449 -0.1262 -0.0910
 1639POPC   C4B18234  19.845  17.780   5.577  0.0771  0.0223 -0.0148
 1640POPC   NC318235  23.244   2.297   3.432 -0.3588 -0.0743  0.1785
 1640POPC   PO418236  22.943   2.412   3.654  0.2262 -0.0020  0.4349
 1640POPC   GL118237  22.931   2.312   3.987 -0.2241 -0.5005  0.0720
 1640POPC   GL218238  22.924   2.614   4.094  0.0919  0.0271 -0.0119
 1640POPC   C1A18239  22.728   2.169   4.231 -0.0060 -0.0580 -0.0412
 1640POPC   D2A18240  22.271   2.145   4.254 -0.1557 -0.4225 -0.1324
 1640POPC   C3A18241  22.022   2.172   4.625  0.1568  0.1074  0.2742
 1640POPC   C4A18242  21.823   2.131   5.064  0.2143  0.1335 -0.4459
 1640POPC   C1B18243  23.222   2.730   4.303  0.1983  0.0354  0.1686
 1640POPC   C2B18244  23.465   2.673   4.616  0.1556  0.1051 -0.1639
 1640POPC   C3B18245  23.736   2.651   4.967  0.1758 -0.0455 -0.3526
 1640POPC   C4B18246  23.353   2.387   5.081 -0.0017  0.0537  0.2920
 1641POPC   NC318247  24.523   6.638   3.723 -0.2160 -0.0544  0.0251
 1641POPC   PO418248  24.786   6.972   3.707  0.0369  0.3578 -0.0810
 1641POPC   GL118249  24.984   7.041   3.995 -0.3822  0.2758 -0.0067
 1641POPC   GL218250  24.703   7.118   4.070  0.0365  0.0543  0.1162
 1641POPC   C1A18251  25.142   6.995   4.382 -0.0041 -0.2003 -0.1700
 1641POPC   D2A18252  25.225   7.227   4.904  0.0163 -0.0900  0.2609
 1641POPC   C3A18253  25.257   7.360   5.321 -0.1820  0.1672 -0.0767
 1641POPC   C4A18254  25.136   7.690   5.593  0.3209 -0.5640  0.0034
 1641POPC   C1B18255  24.687   7.094   4.464 -0.3851  0.2352  0.3129
 1641POPC   C2B18256  24.702   7.124   4.876 -0.0400 -0.1526  0.0157
 1641POPC   C3B18257  24.803   7.246   5.349 -0.1456 -0.3114  0.0079
 1641POPC   C4B18258  25.027   7.164   5.764  0.0067 -0.1074 -0.2833
 1642POPC   NC318259  19.892  10.413   3.031 -0.4384  0.0417  0.2091
 1642POPC   PO418260  20.274  10.405   3.188  0.1875  0.6317  0.4390
 1642POPC   GL118261  20.400  10.282   3.614 -0.4711 -0.1280  0.0082
 1642POPC   GL218262  20.169  10.126   3.633 -0.2989  0.1761 -0.1670
 1642POPC   C1A18263  20.498  10.269   4.030 -0.0052 -0.2728  0.0271
 1642POPC   D2A18264  20.522  10.424   4.421  0.1417 -0.2674 -0.2799
 1642POPC   C3A18265  20.668  10.170   4.819  0.1623  0.1104  0.2508
 1642POPC   C4A18266  20.647   9.904   5.161  0.2546  0.0276  0.0411
 1642POPC   C1B18267  19.872  10.183   3.875  0.2070 -0.1102 -0.1928
 1642POPC   C2B18268  19.591  10.249   4.164 -0.1089 -0.1759 -0.1201
 1642POPC   C3B18269  19.249  10.232   4.387  0.1186 -0.1449  0.2819
 1642POPC   C4B18270  18.902  10.163   4.774  0.0325  0.1653  0.1149
 1643POPC   NC318271  14.627  15.690   3.439 -0.0400 -0.2195  0.0362
 1643POPC   PO418272  14.528  16.066   3.548 -0.0188 -0.1091  0.0877
 1643POPC   GL118273  14.560  15.986   3.933  0.0730 -0.0547  0.3606
 1643POPC   GL218274  14.612  15.730   3.936  0.2399  0.1709  0.2929
 1643POPC   C1A18275  14.629  16.195   4.346  0.0971 -0.2695  0.2110
 1643POPC   D2A18276  14.458  16.485   4.690  0.0056  0.5904 -0.0385
 1643POPC   C3A18277  14.728  16.705   4.921 -0.0211  0.1572 -0.0130
 1643POPC   C4A18278  15.045  16.858   5.265  0.0256  0.1524 -0.3213
 1643POPC   C1B18279  14.655  15.646   4.293 -0.0242  0.0227  0.2628
 1643POPC   C2B18280  14.464  15.533   4.657  0.0828  0.2428  0.0442
 1643POPC   C3B18281  14.278  15.558   5.043  0.2333 -0.0534  0.0680
 1643POPC   C4B18282  14.194  15.747   5.487 -0.0436 -0.0773  0.2008
 1644POPC   NC318283   5.439  17.061   3.566  0.1866  0.1852 -0.0914
 1644POPC   PO418284   5.783  17.297   3.513  0.0402 -0.0530  0.2041
 1644POPC   GL118285   5.857  17.483   3.935  0.2147 -0.0525 -0.0580
 1644POPC   GL218286   5.867  17.186   3.964  0.0325 -0.3526 -0.1685
 1644POPC   C1A18287   6.230  17.642   4.166 -0.1931  0.1386  0.0971
 1644POPC   D2A18288   6.478  17.733   4.595 -0.0894  0.3524 -0.0195
 1644POPC   C3A18289   6.652  17.797   5.015 -0.2768 -0.0712 -0.0724
 1644POPC   C4A18290   7.085  18.009   5.200  0.2512 -0.1985  0.0981
 1644POPC   C1B18291   5.679  17.176   4.271 -0.2879 -0.1853 -0.0484
 1644POPC   C2B18292   5.327  17.072   4.443 -0.2088 -0.3655  0.3862
 1644POPC   C3B18293   4.965  16.828   4.625 -0.0649 -0.1720  0.0154
 1644POPC   C4B18294   4.792  16.520   4.365  0.2754 -0.2365 -0.1530
 1645POPC   NC318295  19.138  23.508   3.754 -0.0649  0.3869 -0.2107
 1645POPC   PO418296  19.521  23.568   3.637  0.1724 -0.1763 -0.0126
 1645POPC   GL118297  19.570  23.365   3.943  0.0846  0.1280  0.2076
 1645POPC   GL218298  19.857  23.436   4.032  0.1370  0.0965  0.1773
 1645POPC   C1A18299  19.382  23.450   4.344 -0.3438 -0.5466 -0.1015
 1645POPC   D2A18300  19.064  23.573   4.716  0.0601 -0.0824 -0.2166
 1645POPC   C3A18301  19.322  23.627   5.099  0.0833 -0.2578  0.2598
 1645POPC   C4A18302  19.358  23.403   5.549 -0.2013 -0.0063 -0.0142
 1645POPC   C1B18303  19.818  23.387   4.405  0.0617  0.3191  0.5578
 1645POPC   C2B18304  19.709  23.421   4.785  0.3291  0.3393 -0.1839
 1645POPC   C3B18305  19.789  23.597   5.272  0.3022 -0.1882  0.2071
 1645POPC   C4B18306  19.820  23.436   5.724 -0.1234 -0.1660 -0.1906
 1646POPC   NC318307  23.601   1.651   3.022  0.1360  0.3696  0.3426
 1646POPC   PO418308  23.688   1.891   3.295 -0.0006  0.2811 -0.0781
 1646POPC   GL118309  23.598   1.740   3.630 -0.3638 -0.1100  0.0516
 1646POPC   GL218310  23.386   1.989   3.692 -0.0343  0.1824 -0.0835
 1646POPC   C1A18311  23.783   1.454   3.857 -0.1509 -0.0698  0.0053
 1646POPC   D2A18312  23.798   1.371   4.295 -0.1861 -0.1776 -0.2725
 1646POPC   C3A18313  23.868   1.162   4.654 -0.0329  0.3720  0.1262
 1646POPC   C4A18314  23.802   0.712   4.914 -0.0433 -0.0254 -0.1416
 1646POPC   C1B18315  23.326   2.032   4.007 -0.3522 -0.1845 -0.1073
 1646POPC   C2B18316  23.203   2.225   4.344  0.0988 -0.1766 -0.3306
 1646POPC   C3B18317  22.960   2.510   4.628  0.2872  0.0467 -0.1912
 1646POPC   C4B18318  22.666   2.690   4.952 -0.0230 -0.0348  0.1020
 1647POPC   NC318319   3.689  24.500   3.951 -0.0052  0.1393  0.0783
 1647POPC   PO418320   3.588  24.882   3.896  0.0878  0.2909 -0.3259
 1647POPC   GL118321   3.443  25.128   3.949  0.4381  0.0623  0.1973
 1647POPC   GL218322   3.192  25.057   4.127 -0.3064  0.2386  0.0263
 1647POPC   C1A18323   3.600  25.291   4.380  0.1776 -0.3185  0.0080
 1647POPC   D2A18324   3.537  25.603   4.753  0.2646  0.0027  0.2289
 1647POPC   C3A18325   3.332  25.699   5.110 -0.1882  0.0697 -0.0061
 1647POPC   C4A18326   3.016  25.771   5.424 -0.2460  0.5038  0.0134
 1647POPC   C1B18327   3.100  25.279   4.387 -0.3180  0.2136  0.1051
 1647POPC   C2B18328   3.024  25.257   4.778  0.1349  0.0703 -0.2037
 1647POPC   C3B18329   2.869  25.357   5.244  0.1475  0.4166 -0.0675
 1647POPC   C4B18330   2.467  25.321   5.601  0.0389 -0.0498 -0.2598
 1648POPC   NC318331  11.182   7.604   3.703 -0.0142 -0.1208 -0.0559
 1648POPC   PO418332  11.076   7.212   3.651 -0.1570  0.1115  0.2400
 1648POPC   GL118333  11.061   7.108   4.071 -0.2322 -0.1076  0.0240
 1648POPC   GL218334  11.154   6.840   4.058 -0.2376  0.0486 -0.0224
 1648POPC   C1A18335  11.385   7.063   4.369 -0.0759 -0.1154  0.1026
 1648POPC   D2A18336  11.514   7.083   4.897  0.0211  0.1066 -0.2353
 1648POPC   C3A18337  11.629   6.741   5.241 -0.3459 -0.0048  0.2341
 1648POPC   C4A18338  11.701   6.454   5.655  0.0304  0.0203  0.3729
 1648POPC   C1B18339  11.091   6.625   4.375  0.0815  0.0179  0.5450
 1648POPC   C2B18340  10.968   6.320   4.663 -0.0136  0.1666  0.2002
 1648POPC   C3B18341  10.891   6.119   5.084  0.0565 -0.3782  0.2507
 1648POPC   C4B18342  10.848   5.754   5.381 -0.2033  0.2375  0.1826
 1649POPC   NC318343  22.823   0.546   2.901  0.0083 -0.0451  0.4413
 1649POPC   PO418344  23.210   0.651   3.057  0.2958 -0.0138  0.1918
 1649POPC   GL118345  23.242   0.631   3.449  0.1878  0.0163  0.3915
 1649POPC   GL218346  23.388   0.893   3.508  0.1341 -0.1159 -0.3107
 1649POPC   C1A18347  23.172   0.507   3.901 -0.1002  0.0681  0.2934
 1649POPC   D2A18348  23.199   0.066   4.188  0.0286  0.1348 -0.2701
 1649POPC   C3A18349  23.461  -0.141   4.500 -0.1315 -0.0965  0.2277
 1649POPC   C4A18350  23.901  -0.207   4.330  0.2287 -0.0718 -0.1608
 1649POPC   C1B18351  23.322   1.185   3.739 -0.2370 -0.1497 -0.4657
 1649POPC   C2B18352  23.253   1.500   4.029 -0.1663 -0.2741 -0.2235
 1649POPC   C3B18353  22.970   1.723   4.330 -0.2903  0.1087  0.1070
 1649POPC   C4B18354  22.932   1.990   4.706  0.0364  0.1065 -0.2669
 1650POPC   NC318355  10.605  16.034   3.328  0.0569  0.0394  0.1256
 1650POPC   PO418356  10.482  15.680   3.353 -0.1146  0.0548  0.1020
 1650POPC   GL118357  10.393  15.660   3.803  0.0636  0.0326 -0.1619
 1650POPC   GL218358  10.139  15.469   3.777  0.0149 -0.0749  0.1957
 1650POPC   C1A18359  10.312  15.849   4.248  0.1143  0.1564 -0.2759
 1650POPC   D2A18360  10.119  16.086   4.620 -0.3186 -0.2508 -0.0971
 1650POPC   C3A18361   9.880  15.772   4.811  0.1405 -0.1739  0.0774
 1650POPC   C4A18362   9.994  15.844   5.267  0.0381 -0.1378 -0.2710
 1650POPC   C1B18363   9.835  15.502   4.037 -0.1564 -0.0671  0.3704
 1650POPC   C2B18364   9.563  15.621   4.343 -0.0996  0.0463 -0.0644
 1650POPC   C3B18365   9.323  15.679   4.761 -0.0723  0.0011  0.2338
 1650POPC   C4B18366   9.022  15.690   5.171  0.1531  0.0355  0.0094
 1651POPC   NC318367   2.777  13.162   3.699 -0.0180  0.0043  0.2755
 1651POPC   PO418368   2.401  13.127   3.633 -0.2848  0.2103  0.1790
 1651POPC   GL118369   2.330  12.959   4.025 -0.1411 -0.0515 -0.3793
 1651POPC   GL218370   2.108  13.113   4.147 -0.1607  0.1647 -0.1993
 1651POPC   C1A18371   2.650  12.777   4.348  0.0712 -0.3277  0.1989
 1651POPC   D2A18372   2.870  12.858   4.794 -0.3505  0.1306 -0.0992
 1651POPC   C3A18373   2.803  12.752   5.274 -0.2447  0.2351  0.1950
 1651POPC   C4A18374   2.763  12.461   5.736 -0.0769  0.1248  0.2785
 1651POPC   C1B18375   2.015  13.119   4.488 -0.1029  0.1231  0.0265
 1651POPC   C2B18376   2.030  13.066   4.888  0.0096 -0.2363 -0.0137
 1651POPC   C3B18377   1.843  13.237   5.281  0.2822  0.4207  0.0044
 1651POPC   C4B18378   1.569  13.544   5.427  0.2039 -0.0853  0.0055
 1652POPC   NC318379   9.884  21.777   3.263 -0.0846 -0.1499 -0.1846
 1652POPC   PO418380  10.155  21.502   3.329 -0.1290 -0.0119 -0.1820
 1652POPC   GL118381  10.276  21.572   3.676  0.1510 -0.3031 -0.1195
 1652POPC   GL218382  10.574  21.732   3.568  0.1072 -0.2219 -0.2401
 1652POPC   C1A18383  10.202  21.821   4.058  0.3543 -0.0864  0.0567
 1652POPC   D2A18384  10.078  21.487   4.470  0.1365 -0.1493  0.1822
 1652POPC   C3A18385   9.874  21.650   4.835 -0.0560  0.1822 -0.0767
 1652POPC   C4A18386   9.624  21.246   4.896 -0.0699 -0.1406 -0.3366
 1652POPC   C1B18387  10.659  21.808   3.902 -0.0966  0.2013  0.5486
 1652POPC   C2B18388  10.683  21.746   4.291 -0.1274  0.0743 -0.3741
 1652POPC   C3B18389  10.552  21.494   4.613 -0.1968  0.1323  0.0245
 1652POPC   C4B18390  10.238  21.262   4.930  0.0771  0.1160 -0.0525
 1653POPC   NC318391  22.343  13.706   3.639 -0.1540  0.1658 -0.2931
 1653POPC   PO418392  22.387  14.088   3.548 -0.2163 -0.1257  0.0298
 1653POPC   GL118393  22.498  14.396   3.877  0.0022  0.2959 -0.0196
 1653POPC   GL218394  22.213  14.258   3.975  0.0295 -0.2467  0.1670
 1653POPC   C1A18395  22.610  14.434   4.242 -0.2100 -0.1134 -0.0658
 1653POPC   D2A18396  22.455  14.419   4.710 -0.0077 -0.3194  0.2125
 1653POPC   C3A18397  22.483  14.794   4.881  0.2680 -0.0619 -0.1464
 1653POPC   C4A18398  22.488  15.204   5.139 -0.0786 -0.1276  0.1851
 1653POPC   C1B18399  22.135  14.314   4.309  0.2472 -0.1664 -0.0086
 1653POPC   C2B18400  21.990  14.360   4.683  0.0917  0.0861  0.0492
 1653POPC   C3B18401  22.198  14.010   4.938 -0.0229  0.0058  0.0035
 1653POPC   C4B18402  22.465  13.788   5.292 -0.1464  0.2038 -0.0040
 1654POPC   NC318403  24.012   7.452   3.781  0.3278  0.1511  0.0769
 1654POPC   PO418404  23.795   7.244   3.470 -0.3533 -0.0115  0.1505
 1654POPC   GL118405  23.545   6.901   3.590 -0.1679 -0.0344  0.2977
 1654POPC   GL218406  23.364   7.113   3.551  0.1227 -0.1935  0.0740
 1654POPC   C1A18407  23.457   6.778   4.129 -0.0290 -0.2460 -0.0317
 1654POPC   D2A18408  23.498   6.784   4.625 -0.0038  0.0653  0.0015
 1654POPC   C3A18409  23.432   6.947   5.007  0.5029 -0.0342  0.1496
 1654POPC   C4A18410  23.284   7.108   5.456 -0.2147  0.0563 -0.1152
 1654POPC   C1B18411  23.229   7.148   3.894 -0.0680  0.2070 -0.2175
 1654POPC   C2B18412  23.304   7.221   4.274  0.0374 -0.0638  0.0603
 1654POPC   C3B18413  23.151   7.352   4.684  0.0770 -0.1590  0.1419
 1654POPC   C4B18414  23.224   7.474   5.138  0.1196 -0.0796 -0.0585
 1655POPC   NC318415   8.540  21.491   2.889  0.3390 -0.2403  0.1125
 1655POPC   PO418416   8.452  21.163   3.151 -0.1401 -0.3718 -0.1566
 1655POPC   GL118417   8.339  21.053   3.581  0.0758 -0.0400 -0.0587
 1655POPC   GL218418   8.631  21.160   3.651 -0.2154  0.2041  0.0005
 1655POPC   C1A18419   8.100  21.122   3.959  0.0526 -0.1303  0.1368
 1655POPC   D2A18420   8.163  21.057   4.423  0.3678  0.0285 -0.1133
 1655POPC   C3A18421   8.143  20.854   4.777  0.2348  0.0842 -0.0984
 1655POPC   C4A18422   8.071  20.821   5.273 -0.0849 -0.1949 -0.0223
 1655POPC   C1B18423   8.611  21.369   3.989 -0.0419 -0.2898  0.5062
 1655POPC   C2B18424   8.497  21.405   4.340 -0.2357 -0.0118 -0.2355
 1655POPC   C3B18425   8.639  21.563   4.796 -0.3812 -0.0908 -0.3483
 1655POPC   C4B18426   8.585  21.597   5.270 -0.0163 -0.1258 -0.1036
 1656POPC   NC318427  13.224  27.100   3.928 -0.2530  0.3241 -0.1361
 1656POPC   PO418428  12.952  27.358   3.977  0.2149  0.0938  0.3726
 1656POPC   GL118429  13.214  27.441   4.332  0.3871 -0.2039 -0.0899
 1656POPC   GL218430  13.328  27.705   4.269  0.1208 -0.0334  0.1759
 1656POPC   C1A18431  13.188  27.504   4.717 -0.0118 -0.2254 -0.2296
 1656POPC   D2A18432  13.064  27.606   5.212 -0.2154 -0.3505 -0.0213
 1656POPC   C3A18433  13.237  27.926   5.471  0.1646 -0.0419 -0.0717
 1656POPC   C4A18434  13.175  27.965   5.929  0.1816 -0.0227 -0.1832
 1656POPC   C1B18435  13.487  27.899   4.604  0.5573 -0.2194  0.1777
 1656POPC   C2B18436  13.471  27.928   5.020 -0.2576 -0.0911 -0.2172
 1656POPC   C3B18437  13.873  28.191   5.199  0.3575  0.0233 -0.1699
 1656POPC   C4B18438  14.140  28.569   5.256 -0.2388 -0.0341  0.0464
 1657POPC   NC318439   1.616   6.987   4.062  0.2947  0.0254  0.2766
 1657POPC   PO418440   1.634   7.295   4.243  0.2439 -0.2251 -0.4684
 1657POPC   GL118441   1.577   7.471   4.551 -0.0267  0.0156  0.1954
 1657POPC   GL218442   1.859   7.453   4.585  0.2043 -0.0797 -0.0428
 1657POPC   C1A18443   1.695   7.837   4.767  0.1364 -0.3253  0.0175
 1657POPC   D2A18444   2.129   7.891   4.989  0.1862 -0.1082  0.0942
 1657POPC   C3A18445   2.354   7.807   5.391  0.1009  0.1552  0.1765
 1657POPC   C4A18446   2.582   7.682   5.820  0.1259 -0.0181 -0.3883
 1657POPC   C1B18447   2.196   7.387   4.792  0.3311  0.0020 -0.0288
 1657POPC   C2B18448   2.500   7.456   5.051 -0.3658 -0.1709  0.0722
 1657POPC   C3B18449   2.925   7.736   5.297  0.3206 -0.0140  0.2203
 1657POPC   C4B18450   3.296   8.030   5.617 -0.0865  0.2276  0.1561
 1658POPC   NC318451  16.226   7.466   3.247  0.1868 -0.0167  0.0655
 1658POPC   PO418452  16.532   7.256   3.165 -0.4201 -0.3349  0.1289
 1658POPC   GL118453  16.759   7.472   3.396  0.0022 -0.1736  0.2114
 1658POPC   GL218454  16.959   7.553   3.428  0.1007  0.4932 -0.0342
 1658POPC   C1A18455  16.518   7.791   3.594  0.0956  0.0647 -0.0163
 1658POPC   D2A18456  16.178   7.869   3.947 -0.4445 -0.0138  0.0887
 1658POPC   C3A18457  16.212   7.812   4.344  0.4031 -0.0288  0.0313
 1658POPC   C4A18458  16.101   7.625   4.736  0.1331 -0.3610  0.0452
 1658POPC   C1B18459  16.924   7.775   3.745  0.1205  0.3798 -0.0198
 1658POPC   C2B18460  17.120   7.733   4.094 -0.5803  0.2109  0.0512
 1658POPC   C3B18461  17.363   7.617   4.450  0.0499  0.1194  0.0301
 1658POPC   C4B18462  17.394   7.911   4.821 -0.0499 -0.2562 -0.0231
 1659POPC   NC318463  16.947  27.368   3.970  0.0730 -0.1004  0.2086
 1659POPC   PO418464  16.833  27.745   3.861  0.1214 -0.2485  0.0061
 1659POPC   GL118465  16.635  27.717   4.260  0.1920  0.0515 -0.4581
 1659POPC   GL218466  16.713  27.490   4.334  0.0981  0.1709  0.3700
 1659POPC   C1A18467  16.670  27.994   4.580 -0.1011 -0.2468 -0.3283
 1659POPC   D2A18468  17.024  27.948   4.930 -0.3999 -0.2020 -0.1330
 1659POPC   C3A18469  17.000  27.978   5.431  0.0322 -0.0313 -0.1551
 1659POPC   C4A18470  16.662  28.058   5.725  0.2789  0.3915  0.4820
 1659POPC   C1B18471  16.812  27.484   4.648 -0.0456  0.2747 -0.0051
 1659POPC   C2B18472  16.879  27.468   5.031 -0.2026  0.0915 -0.0240
 1659POPC   C3B18473  17.162  27.524   5.348 -0.2475  0.0842 -0.0834
 1659POPC   C4B18474  17.533  27.504   5.662  0.2907 -0.0907 -0.3978
 1660POPC   NC318475   0.470  17.578   3.713  0.0718 -0.1026 -0.2777
 1660POPC   PO418476   0.830  17.456   3.915  0.0539  0.1225  0.1229
 1660POPC   GL118477   0.927  17.604   4.297 -0.0404 -0.1975 -0.0790
 1660POPC   GL218478   0.781  17.793   4.375  0.0221 -0.3549 -0.2455
 1660POPC   C1A18479   0.876  17.358   4.605 -0.0036 -0.0843  0.2131
 1660POPC   D2A18480   0.802  17.247   5.137  0.1369 -0.2911 -0.2773
 1660POPC   C3A18481   0.738  17.100   5.560 -0.3757 -0.0860 -0.0205
 1660POPC   C4A18482   0.731  16.679   5.846  0.0992  0.4046 -0.0330
 1660POPC   C1B18483   0.599  17.748   4.725 -0.1277 -0.0981 -0.1303
 1660POPC   C2B18484   0.592  17.742   5.184 -0.1154  0.1815  0.0789
 1660POPC   C3B18485   0.644  17.619   5.608 -0.1852 -0.1038  0.2098
 1660POPC   C4B18486   0.694  17.458   6.073  0.2048  0.0228 -0.0072
 1661POPC   NC318487   4.344  18.669   3.269  0.2188  0.1808  0.1257
 1661POPC   PO418488   3.984  18.816   3.405 -0.1557 -0.2275  0.0068
 1661POPC   GL118489   3.864  18.877   3.795  0.0726 -0.1152 -0.0315
 1661POPC   GL218490   3.881  18.590   3.908  0.0862 -0.0700  0.0920
 1661POPC   C1A18491   3.751  19.085   4.173  0.1595  0.1913 -0.3356
 1661POPC   D2A18492   3.762  19.218   4.652 -0.0784  0.1353 -0.1218
 1661POPC   C3A18493   3.945  19.391   5.041  0.2860 -0.1822 -0.1731
 1661POPC   C4A18494   4.043  19.629   5.466  0.1804  0.0992 -0.1241
 1661POPC   C1B18495   3.868  18.530   4.299  0.2654 -0.2096  0.4849
 1661POPC   C2B18496   3.856  18.474   4.699 -0.1776 -0.1159  0.0496
 1661POPC   C3B18497   4.046  18.350   5.113  0.3023 -0.0171 -0.0890
 1661POPC   C4B18498   4.179  18.129   5.512  0.1350  0.1114 -0.2938
 1662POPC   NC318499  23.066  19.838   3.144 -0.0720  0.0330  0.2319
 1662POPC   PO418500  23.372  20.005   3.321  0.0895  0.1452  0.0504
 1662POPC   GL118501  23.389  20.209   3.707 -0.1318  0.4102 -0.1065
 1662POPC   GL218502  23.082  20.151   3.712  0.0725 -0.0142 -0.0965
 1662POPC   C1A18503  23.523  19.973   4.084 -0.0196  0.1194  0.0196
 1662POPC   D2A18504  23.622  19.956   4.595 -0.1784  0.2014 -0.2133
 1662POPC   C3A18505  23.833  20.120   4.996  0.2938 -0.2355 -0.2097
 1662POPC   C4A18506  23.985  20.204   5.484 -0.3134 -0.0664  0.2291
 1662POPC   C1B18507  23.124  20.058   4.066  0.1077  0.0458 -0.0555
 1662POPC   C2B18508  23.135  19.979   4.447 -0.2456 -0.0445  0.2775
 1662POPC   C3B18509  23.252  20.013   4.951  0.0938 -0.0182 -0.0816
 1662POPC   C4B18510  23.477  19.804   5.300 -0.3638 -0.2244  0.3751
 1663POPC   NC318511   5.512   4.668   3.136 -0.2503 -0.0723  0.1139
 1663POPC   PO418512   5.602   4.320   3.339  0.2582 -0.2039 -0.2644
 1663POPC   GL118513   5.435   4.162   3.726 -0.3836 -0.0808  0.0152
 1663POPC   GL218514   5.677   4.377   3.840 -0.0812 -0.3167  0.0267
 1663POPC   C1A18515   5.053   4.052   3.950 -0.1210  0.1226  0.1967
 1663POPC   D2A18516   4.760   4.119   4.356  0.1194  0.1358 -0.2206
 1663POPC   C3A18517   5.073   4.277   4.744  0.3740  0.3168 -0.1214
 1663POPC   C4A18518   5.091   4.605   4.967  0.2768  0.0916 -0.2385
 1663POPC   C1B18519   5.793   4.571   4.165 -0.4818 -0.0543  0.0083
 1663POPC   C2B18520   5.605   4.611   4.535  0.2900 -0.0097  0.0689
 1663POPC   C3B18521   5.604   4.865   4.994  0.5760 -0.1110  0.2434
 1663POPC   C4B18522   5.265   4.800   5.422 -0.0221  0.0044  0.1042
 1664POPC   NC318523  23.931  12.839   3.794  0.1887 -0.1831  0.2457
 1664POPC   PO418524  23.722  13.146   3.611  0.2251 -0.3729  0.2873
 1664POPC   GL118525  23.647  13.144   4.068 -0.0724 -0.2239  0.0377
 1664POPC   GL218526  23.407  13.243   4.025 -0.2506  0.2425  0.3419
 1664POPC   C1A18527  23.715  12.866   4.435 -0.1636  0.2147  0.0736
 1664POPC   D2A18528  23.617  12.601   4.849 -0.0424 -0.1225  0.2034
 1664POPC   C3A18529  23.199  12.494   5.143 -0.1091 -0.1700 -0.0083
 1664POPC   C4A18530  22.785  12.781   5.105  0.0320  0.0105 -0.1140
 1664POPC   C1B18531  23.326  13.179   4.367 -0.0900 -0.1745 -0.0901
 1664POPC   C2B18532  23.217  13.100   4.714  0.3932  0.2360 -0.3385
 1664POPC   C3B18533  23.155  13.058   5.194  0.0281  0.1002  0.0076
 1664POPC   C4B18534  23.089  13.234   5.660 -0.0718  0.1001 -0.1062
 1665POPC   NC318535   7.324   7.624   3.373 -0.2102 -0.0005  0.0632
 1665POPC   PO418536   6.970   7.742   3.305  0.1894  0.1492  0.1625
 1665POPC   GL118537   6.742   7.853   3.604 -0.0781  0.0126 -0.2901
 1665POPC   GL218538   6.531   7.639   3.494  0.1129  0.1990  0.0807
 1665POPC   C1A18539   6.632   8.029   3.966  0.2101 -0.0159 -0.3306
 1665POPC   D2A18540   6.452   7.935   4.429 -0.3331 -0.0270  0.0398
 1665POPC   C3A18541   6.283   8.131   4.815  0.0888 -0.0826  0.1637
 1665POPC   C4A18542   6.391   8.359   5.254  0.1492  0.1648 -0.1066
 1665POPC   C1B18543   6.175   7.515   3.608 -0.1469 -0.1918 -0.0802
 1665POPC   C2B18544   5.919   7.489   3.909  0.0955  0.3132 -0.0647
 1665POPC   C3B18545   5.786   7.350   4.349  0.0088  0.0968  0.1546
 1665POPC   C4B18546   5.634   7.244   4.837 -0.0036  0.0851  0.0358
 1666POPC   NC318547  26.174   7.144   3.571 -0.1336  0.3318  0.1004
 1666POPC   PO418548  26.533   7.037   3.437  0.4453 -0.1540 -0.3376
 1666POPC   GL118549  26.561   7.065   3.872 -0.3332 -0.2548 -0.0349
 1666POPC   GL218550  26.364   6.870   3.938 -0.1941 -0.1302 -0.1511
 1666POPC   C1A18551  26.511   7.386   4.218 -0.0732  0.1939 -0.1471
 1666POPC   D2A18552  26.477   7.752   4.609 -0.1309 -0.4097  0.1453
 1666POPC   C3A18553  26.375   7.701   5.078  0.1332 -0.0484  0.0214
 1666POPC   C4A18554  26.081   7.412   5.351  0.0543  0.3284 -0.1600
 1666POPC   C1B18555  26.366   6.841   4.296  0.0994  0.0572  0.1708
 1666POPC   C2B18556  26.315   6.788   4.713 -0.1100 -0.0774 -0.0069
 1666POPC   C3B18557  26.118   6.933   5.155 -0.3340  0.1757  0.0548
 1666POPC   C4B18558  25.928   6.867   5.595 -0.1304  0.1217  0.0363
 1667POPC   NC318559  22.511   3.667   3.245  0.0238 -0.2172 -0.2384
 1667POPC   PO418560  22.666   3.754   3.580 -0.2188  0.0753  0.1392
 1667POPC   GL118561  22.388   3.897   3.919 -0.1117  0.2275 -0.1334
 1667POPC   GL218562  22.531   4.103   3.872  0.0406 -0.0140  0.1313
 1667POPC   C1A18563  22.314   4.004   4.404 -0.1303 -0.1854  0.1849
 1667POPC   D2A18564  22.145   4.199   4.828  0.0887 -0.0499  0.2856
 1667POPC   C3A18565  22.227   4.085   5.272  0.2207  0.0162 -0.3402
 1667POPC   C4A18566  22.280   3.937   5.747  0.1544  0.3930 -0.1587
 1667POPC   C1B18567  22.594   4.275   4.165  0.4614  0.1187 -0.3793
 1667POPC   C2B18568  22.665   4.340   4.555 -0.1001 -0.1638  0.1732
 1667POPC   C3B18569  22.597   4.320   5.069 -0.1032 -0.0089 -0.0241
 1667POPC   C4B18570  22.727   4.157   5.509 -0.0800  0.0141  0.4610
 1668POPC   NC318571  15.014   6.688   3.607 -0.2344 -0.1837 -0.1001
 1668POPC   PO418572  14.885   6.969   3.316  0.1405  0.1240  0.0965
 1668POPC   GL118573  14.925   7.254   3.589 -0.2255 -0.2492 -0.0272
 1668POPC   GL218574  14.798   7.172   3.854  0.2142 -0.0412 -0.4954
 1668POPC   C1A18575  15.259   7.400   3.859 -0.2203  0.0273  0.1751
 1668POPC   D2A18576  15.462   7.300   4.287 -0.2606  0.0159 -0.2542
 1668POPC   C3A18577  15.331   7.069   4.762 -0.2024  0.0759  0.2081
 1668POPC   C4A18578  15.092   6.976   5.182  0.3530 -0.3293 -0.1851
 1668POPC   C1B18579  14.852   7.306   4.170  0.0573 -0.0850  0.0177
 1668POPC   C2B18580  14.880   7.049   4.507  0.0566 -0.2245 -0.2616
 1668POPC   C3B18581  15.083   6.602   4.689  0.0783  0.1517 -0.3537
 1668POPC   C4B18582  15.253   6.184   4.772  0.2274 -0.1695  0.0150
 1669POPC   NC318583  14.369  20.043   3.309 -0.1308 -0.3968 -0.0039
 1669POPC   PO418584  14.016  19.910   3.345 -0.0651 -0.1184  0.1633
 1669POPC   GL118585  13.979  19.756   3.701 -0.1036  0.0420  0.1416
 1669POPC   GL218586  13.808  19.543   3.720 -0.0136 -0.0842  0.0086
 1669POPC   C1A18587  14.165  19.564   4.071  0.4114 -0.0739  0.0119
 1669POPC   D2A18588  14.239  19.353   4.578  0.1697  0.2825 -0.0208
 1669POPC   C3A18589  14.323  19.044   4.911  0.1566 -0.0163 -0.0996
 1669POPC   C4A18590  14.351  18.601   4.932 -0.3304  0.3291 -0.1526
 1669POPC   C1B18591  13.846  19.253   3.972 -0.0697  0.2604  0.0470
 1669POPC   C2B18592  13.854  19.103   4.347  0.0830  0.2761  0.1682
 1669POPC   C3B18593  13.844  18.746   4.707  0.0682  0.3615 -0.2790
 1669POPC   C4B18594  13.760  18.264   4.752  0.0514  0.0438  0.3185
 1670POPC   NC318595  19.965  26.710   3.121  0.1539  0.1534 -0.1872
 1670POPC   PO418596  19.928  27.083   3.288 -0.1524  0.4646  0.3755
 1670POPC   GL118597  19.820  27.221   3.603  0.0524  0.3753 -0.1301
 1670POPC   GL218598  19.643  27.353   3.616  0.0891  0.2514 -0.0540
 1670POPC   C1A18599  19.957  27.188   3.996  0.1263 -0.0142  0.1267
 1670POPC   D2A18600  20.210  26.964   4.411  0.0942  0.1256  0.0515
 1670POPC   C3A18601  20.073  27.145   4.832  0.0642 -0.1032  0.1692
 1670POPC   C4A18602  20.268  27.273   5.277  0.6905 -0.1626 -0.1700
 1670POPC   C1B18603  19.590  27.519   3.952  0.4932  0.0798  0.3121
 1670POPC   C2B18604  19.449  27.658   4.286 -0.0670  0.0950  0.1380
 1670POPC   C3B18605  19.294  27.645   4.729 -0.1007  0.1927 -0.1628
 1670POPC   C4B18606  19.195  27.610   5.233  0.0016 -0.0469 -0.1044
 1671POPC   NC318607   9.698  24.163   3.564 -0.2005  0.3497  0.1684
 1671POPC   PO418608   9.754  23.824   3.338  0.0573 -0.0395 -0.4299
 1671POPC   GL118609  10.144  23.759   3.482  0.2765  0.2828 -0.2188
 1671POPC   GL218610  10.195  23.973   3.621  0.3287  0.3277  0.1972
 1671POPC   C1A18611  10.252  23.460   3.758  0.2363  0.0878  0.1000
 1671POPC   D2A18612  10.648  23.134   3.855 -0.1290  0.2762 -0.1427
 1671POPC   C3A18613  10.768  22.979   4.291  0.3358 -0.0297 -0.1082
 1671POPC   C4A18614  10.810  23.075   4.780  0.0478 -0.0385  0.0064
 1671POPC   C1B18615  10.126  24.052   3.972 -0.2520  0.2156  0.1745
 1671POPC   C2B18616  10.295  24.151   4.353  0.1016  0.0960 -0.1728
 1671POPC   C3B18617  10.475  24.032   4.826  0.4473 -0.0994 -0.0651
 1671POPC   C4B18618  10.517  23.961   5.258 -0.0359  0.2543  0.1040
 1672POPC   NC318619   4.054  14.268   3.610 -0.1803 -0.1578  0.0511
 1672POPC   PO418620   3.929  13.899   3.449 -0.3526  0.0233 -0.0361
 1672POPC   GL118621   4.080  13.763   3.836 -0.1204 -0.3367  0.1359
 1672POPC   GL218622   4.238  13.947   3.864 -0.0196  0.1542  0.0548
 1672POPC   C1A18623   4.079  13.415   4.050 -0.2641 -0.1206 -0.1069
 1672POPC   D2A18624   4.290  13.466   4.537  0.2304 -0.0179  0.0995
 1672POPC   C3A18625   4.126  13.138   4.845  0.0485 -0.2889  0.0368
 1672POPC   C4A18626   4.021  12.695   5.100 -0.1418  0.1975  0.0529
 1672POPC   C1B18627   4.367  14.023   4.166 -0.0355  0.0673  0.0063
 1672POPC   C2B18628   4.513  14.019   4.540  0.1468  0.1438  0.2633
 1672POPC   C3B18629   4.621  13.976   4.988  0.2091 -0.3816  0.0335
 1672POPC   C4B18630   4.671  14.408   5.341  0.2511  0.0023 -0.2555
 1673POPC   NC318631   6.810  25.972   3.949  0.0909 -0.0535  0.1266
 1673POPC   PO418632   6.424  26.005   4.007 -0.2674  0.3411  0.1248
 1673POPC   GL118633   6.259  25.606   4.201  0.0483 -0.0924  0.0430
 1673POPC   GL218634   6.088  25.851   4.283 -0.2237 -0.0473 -0.2822
 1673POPC   C1A18635   6.456  25.450   4.583 -0.2000  0.0726  0.0270
 1673POPC   D2A18636   6.712  25.210   4.925 -0.1711 -0.2628  0.0198
 1673POPC   C3A18637   6.349  25.048   5.251  0.1945  0.2290 -0.2728
 1673POPC   C4A18638   6.528  24.710   5.434  0.0995  0.1672 -0.3258
 1673POPC   C1B18639   6.129  25.786   4.652 -0.5532  0.2597  0.0276
 1673POPC   C2B18640   6.270  25.783   5.042 -0.0839  0.1910 -0.1269
 1673POPC   C3B18641   6.627  25.647   5.303  0.2204  0.1344 -0.0790
 1673POPC   C4B18642   6.938  25.313   5.412  0.1813  0.2267 -0.3228
 1674POPC   NC318643   7.677  25.045   4.248 -0.1579 -0.4004  0.0333
 1674POPC   PO418644   7.389  25.117   3.951 -0.1476  0.1597 -0.2103
 1674POPC   GL118645   7.173  25.175   4.300 -0.4574 -0.0119  0.0250
 1674POPC   GL218646   7.292  25.017   4.494 -0.0209 -0.0238 -0.5963
 1674POPC   C1A18647   7.177  25.552   4.503 -0.0610 -0.1081 -0.2133
 1674POPC   D2A18648   7.351  25.838   4.816  0.2199 -0.0597  0.1656
 1674POPC   C3A18649   7.502  25.475   5.089 -0.5631 -0.1117  0.1269
 1674POPC   C4A18650   7.454  25.176   5.435 -0.2101  0.0938 -0.0416
 1674POPC   C1B18651   7.164  25.060   4.818 -0.7152 -0.1548  0.4086
 1674POPC   C2B18652   7.033  24.926   5.171 -0.0012  0.2132  0.3477
 1674POPC   C3B18653   7.361  24.691   5.392  0.0106  0.1254 -0.1907
 1674POPC   C4B18654   7.781  24.419   5.506  0.3560  0.4562 -0.0134
 1675POPC   NC318655   8.802  24.168   3.851 -0.7242 -0.3563 -0.0544
 1675POPC   PO418656   8.768  24.598   3.717 -0.0076  0.2757 -0.1225
 1675POPC   GL118657   9.045  24.843   3.958  0.1651 -0.0065 -0.2569
 1675POPC   GL218658   8.863  24.616   4.163 -0.1718  0.1074 -0.0159
 1675POPC   C1A18659   9.540  24.946   4.097  0.2457  0.1509 -0.0627
 1675POPC   D2A18660   9.787  24.993   4.566  0.0284 -0.0878  0.2066
 1675POPC   C3A18661   9.953  25.045   5.069  0.2431 -0.1090 -0.1020
 1675POPC   C4A18662  10.033  25.221   5.487 -0.1484  0.1434  0.2717
 1675POPC   C1B18663   8.901  24.634   4.565 -0.0112  0.0574  0.0777
 1675POPC   C2B18664   8.969  24.736   4.948 -0.0782  0.2875 -0.0348
 1675POPC   C3B18665   9.134  24.731   5.459  0.0508 -0.1325 -0.0907
 1675POPC   C4B18666   9.402  24.860   5.872  0.0882 -0.1692 -0.1794
 1676POPC   NC318667  21.894   1.062   3.563 -0.1590 -0.0403  0.4422
 1676POPC   PO418668  22.030   0.978   3.903 -0.0814  0.1128 -0.1623
 1676POPC   GL118669  22.035   0.631   4.169  0.1111  0.0912  0.2730
 1676POPC   GL218670  22.016   0.884   4.394 -0.0574  0.0910  0.1873
 1676POPC   C1A18671  22.241   0.244   4.312 -0.0823 -0.1397 -0.0111
 1676POPC   D2A18672  22.499   0.344   4.682  0.0937  0.2268 -0.0623
 1676POPC   C3A18673  22.446   0.286   5.109  0.0080 -0.1647  0.1109
 1676POPC   C4A18674  22.451  -0.214   5.158  0.2955 -0.2360 -0.3921
 1676POPC   C1B18675  22.111   0.916   4.757 -0.0891 -0.6044  0.2725
 1676POPC   C2B18676  22.215   1.161   5.059  0.0677  0.0356 -0.0703
 1676POPC   C3B18677  22.525   1.434   5.331  0.1187 -0.1425 -0.0282
 1676POPC   C4B18678  22.687   1.823   5.640  0.1382 -0.1503 -0.1070
 1677POPC   NC318679   3.252   9.035   2.866  0.2593  0.1171 -0.0183
 1677POPC   PO418680   3.337   9.120   3.235  0.1659  0.4131 -0.0451
 1677POPC   GL118681   3.094   8.886   3.625  0.2808  0.2773 -0.0702
 1677POPC   GL218682   3.208   9.140   3.715 -0.0665  0.3553 -0.0521
 1677POPC   C1A18683   3.195   8.589   3.981 -0.2202 -0.1919 -0.0305
 1677POPC   D2A18684   3.248   8.209   4.286 -0.2273  0.1552  0.0345
 1677POPC   C3A18685   3.195   7.781   4.225 -0.2406 -0.0049  0.0497
 1677POPC   C4A18686   2.897   7.548   3.930  0.2260 -0.0322  0.1958
 1677POPC   C1B18687   2.930   9.380   3.714 -0.0661 -0.2326  0.4206
 1677POPC   C2B18688   2.815   9.630   4.051 -0.1227 -0.1986 -0.2477
 1677POPC   C3B18689   2.449   9.851   4.330  0.1934  0.0292  0.0262
 1677POPC   C4B18690   2.250  10.142   4.684  0.2675  0.0817 -0.1576
 1678POPC   NC318691   1.306  17.642   4.047  0.0275 -0.0449 -0.0153
 1678POPC   PO418692   1.565  17.987   3.983  0.1462  0.3294 -0.0703
 1678POPC   GL118693   1.835  18.008   4.273  0.0257  0.1999 -0.1465
 1678POPC   GL218694   1.868  17.687   4.189 -0.1863  0.0431  0.2786
 1678POPC   C1A18695   1.831  18.155   4.729 -0.0044  0.1664  0.1539
 1678POPC   D2A18696   2.049  18.095   5.174 -0.0024 -0.1130 -0.0370
 1678POPC   C3A18697   2.384  18.131   5.482  0.4246  0.2584  0.0502
 1678POPC   C4A18698   2.735  18.337   5.694  0.1472 -0.2170 -0.2375
 1678POPC   C1B18699   2.088  17.707   4.521  0.1240  0.2121 -0.3062
 1678POPC   C2B18700   2.301  17.672   4.888  0.0807  0.0709 -0.1710
 1678POPC   C3B18701   2.495  17.395   5.236 -0.1055  0.0955  0.2165
 1678POPC   C4B18702   2.391  17.105   5.633 -0.0080 -0.0984 -0.0743
 1679POPC   NC318703   3.937   1.354   3.170  0.1271  0.3431 -0.7705
 1679POPC   PO418704   4.070   1.089   3.438  0.0188 -0.0050 -0.0239
 1679POPC   GL118705   3.910   1.205   3.779  0.3350  0.2658  0.0409
 1679POPC   GL218706   3.924   1.477   3.738  0.2559  0.4505  0.3028
 1679POPC   C1A18707   3.641   1.327   4.107 -0.1888  0.2379 -0.0087
 1679POPC   D2A18708   3.398   1.217   4.530 -0.1203  0.0861 -0.1243
 1679POPC   C3A18709   3.169   1.209   5.038 -0.0459  0.1138 -0.1124
 1679POPC   C4A18710   3.017   1.399   5.434  0.0348 -0.0722  0.1960
 1679POPC   C1B18711   4.158   1.569   4.016 -0.2748 -0.2039  0.2194
 1679POPC   C2B18712   4.035   1.531   4.412  0.1983  0.0263 -0.2347
 1679POPC   C3B18713   4.027   1.701   4.843  0.0470 -0.0276  0.1032
 1679POPC   C4B18714   3.913   1.751   5.288  0.1211 -0.1882 -0.0121
 1680POPC   NC318715   5.626  21.444   3.355 -0.1354 -0.2205  0.0593
 1680POPC   PO418716   5.709  21.229   3.682  0.0155 -0.2538 -0.1572
 1680POPC   GL118717   5.464  20.966   3.862  0.0876 -0.2050  0.0936
 1680POPC   GL218718   5.379  21.155   4.005 -0.0783  0.1632  0.2478
 1680POPC   C1A18719   5.756  20.685   4.067  0.0752  0.2251  0.1576
 1680POPC   D2A18720   5.766  20.652   4.577 -0.0802 -0.1267 -0.0657
 1680POPC   C3A18721   5.793  20.699   5.013  0.0377  0.2639 -0.0368
 1680POPC   C4A18722   5.689  20.787   5.435 -0.1395 -0.0509 -0.0302
 1680POPC   C1B18723   5.236  20.984   4.302 -0.1503  0.0339 -0.3776
 1680POPC   C2B18724   5.331  20.840   4.653  0.1234  0.1371  0.2362
 1680POPC   C3B18725   5.310  20.762   5.135 -0.0527 -0.6192 -0.0873
 1680POPC   C4B18726   5.052  20.811   5.583 -0.0381  0.2871 -0.0057
 1681POPC   NC318727  25.567   2.489   3.564 -0.1777  0.0851  0.0402
 1681POPC   PO418728  25.650   2.520   3.957  0.0113  0.0208  0.0057
 1681POPC   GL118729  25.944   2.633   4.275  0.2080  0.0932  0.1158
 1681POPC   GL218730  25.715   2.741   4.403 -0.0291 -0.0355  0.0671
 1681POPC   C1A18731  26.297   2.404   4.514  0.1758 -0.0084 -0.0575
 1681POPC   D2A18732  26.500   2.106   4.813  0.3397 -0.3722 -0.2332
 1681POPC   C3A18733  26.713   2.044   5.266 -0.0430 -0.0751  0.1297
 1681POPC   C4A18734  27.153   2.176   5.535  0.2410 -0.1636 -0.1010
 1681POPC   C1B18735  25.928   2.671   4.720 -0.2744 -0.2681  0.5138
 1681POPC   C2B18736  26.145   2.583   5.027  0.3328 -0.2496 -0.2360
 1681POPC   C3B18737  26.162   2.629   5.495  0.3631  0.3481  0.1881
 1681POPC   C4B18738  26.209   2.339   5.924 -0.0391  0.1774 -0.0391
 1682POPC   NC318739  25.454  11.659   3.979 -0.1727  0.2454  0.1039
 1682POPC   PO418740  25.142  11.818   4.267 -0.0388 -0.1342 -0.1729
 1682POPC   GL118741  25.273  11.444   4.407  0.1375  0.1841  0.1398
 1682POPC   GL218742  24.987  11.387   4.387 -0.0849 -0.1382  0.1242
 1682POPC   C1A18743  25.399  11.154   4.719  0.1189  0.0180 -0.0807
 1682POPC   D2A18744  25.577  11.088   5.203 -0.1577  0.3673  0.0143
 1682POPC   C3A18745  25.721  11.256   5.586 -0.0008  0.0252 -0.2043
 1682POPC   C4A18746  25.780  11.161   6.084  0.0333  0.0159  0.1832
 1682POPC   C1B18747  24.902  11.247   4.697 -0.1952 -0.4475 -0.2779
 1682POPC   C2B18748  24.996  11.035   4.998 -0.2000 -0.1557  0.0790
 1682POPC   C3B18749  25.047  10.726   5.327 -0.0329 -0.3319 -0.0438
 1682POPC   C4B18750  24.989  10.560   5.747  0.2065 -0.2537 -0.0261
 1683POPC   NC318751  24.663  17.971   3.151  0.0405  0.1207  0.0119
 1683POPC   PO418752  24.309  17.981   3.313  0.2669 -0.0951 -0.1816
 1683POPC   GL118753  24.147  18.043   3.687 -0.5143  0.0199  0.1882
 1683POPC   GL218754  24.208  17.789   3.841 -0.1745  0.2290 -0.1839
 1683POPC   C1A18755  24.007  18.224   4.039  0.3686 -0.0290  0.0832
 1683POPC   D2A18756  23.673  18.394   4.415  0.1064  0.0350  0.3384
 1683POPC   C3A18757  23.482  18.401   4.881 -0.2187 -0.1606  0.2411
 1683POPC   C4A18758  23.135  18.173   5.198 -0.2985  0.0836 -0.2501
 1683POPC   C1B18759  24.159  17.781   4.205 -0.3598  0.1429  0.2566
 1683POPC   C2B18760  24.431  17.564   4.489 -0.1579  0.0601  0.0342
 1683POPC   C3B18761  24.367  17.607   4.986 -0.0059  0.2685 -0.0564
 1683POPC   C4B18762  24.456  17.831   5.364  0.2227 -0.0341  0.0230
 1684POPC   NC318763  24.877  22.500   3.481 -0.2548  0.2441  0.0114
 1684POPC   PO418764  24.565  22.278   3.376  0.1528  0.0185  0.0601
 1684POPC   GL118765  24.347  22.205   3.707 -0.0433 -0.1302  0.1715
 1684POPC   GL218766  24.505  22.331   3.851  0.1074 -0.2574 -0.0663
 1684POPC   C1A18767  24.180  21.919   3.974 -0.0090 -0.1942  0.1357
 1684POPC   D2A18768  24.189  21.419   4.036  0.1619  0.1603  0.1017
 1684POPC   C3A18769  24.349  21.140   4.415  0.1721 -0.0961  0.2204
 1684POPC   C4A18770  24.895  21.035   4.473 -0.1402  0.3196  0.0395
 1684POPC   C1B18771  24.821  22.235   4.009 -0.3432  0.2250 -0.1109
 1684POPC   C2B18772  24.927  22.166   4.395 -0.0132 -0.0286  0.1015
 1684POPC   C3B18773  25.129  21.967   4.781  0.1261  0.1131 -0.1991
 1684POPC   C4B18774  25.155  22.260   5.240  0.0185 -0.0266  0.0966
 1685POPC   NC318775   1.378   0.692   3.473 -0.2055 -0.0099  0.0815
 1685POPC   PO418776   1.503   1.066   3.557  0.1327 -0.1491 -0.0696
 1685POPC   GL118777   1.599   1.102   3.914 -0.1165  0.0314  0.1634
 1685POPC   GL218778   1.858   1.257   3.974  0.0300  0.0819 -0.0218
 1685POPC   C1A18779   1.532   0.962   4.318  0.5520 -0.2868  0.0104
 1685POPC   D2A18780   1.732   0.808   4.780  0.1381  0.0951  0.4851
 1685POPC   C3A18781   2.134   0.653   5.007 -0.0200 -0.1874  0.0782
 1685POPC   C4A18782   2.437   0.678   5.381  0.2544 -0.1101 -0.2296
 1685POPC   C1B18783   1.899   1.196   4.342 -0.5069 -0.2707  0.4683
 1685POPC   C2B18784   1.788   1.284   4.754 -0.2505 -0.2659  0.3242
 1685POPC   C3B18785   1.623   1.309   5.241  0.2641  0.0791 -0.0919
 1685POPC   C4B18786   1.368   1.369   5.662 -0.0049 -0.0727  0.3677
 1686POPC   NC318787  19.504  19.312   3.720 -0.1653 -0.0976 -0.0207
 1686POPC   PO418788  19.862  19.162   3.825 -0.0187  0.1748  0.0016
 1686POPC   GL118789  19.890  18.870   4.135 -0.1651  0.0556 -0.0092
 1686POPC   GL218790  19.702  18.929   4.342 -0.0471  0.0246  0.0394
 1686POPC   C1A18791  20.204  18.741   4.404 -0.0539  0.2673 -0.1092
 1686POPC   D2A18792  20.473  18.770   4.834 -0.1738 -0.1407  0.1444
 1686POPC   C3A18793  20.664  18.821   5.267  0.3120  0.0244 -0.0229
 1686POPC   C4A18794  20.632  18.833   5.770 -0.0134  0.0055  0.1660
 1686POPC   C1B18795  19.501  18.896   4.619  0.0615 -0.1352 -0.1270
 1686POPC   C2B18796  19.416  18.795   5.017  0.0269  0.1687 -0.0975
 1686POPC   C3B18797  19.353  18.616   5.459  0.0071  0.0569 -0.2506
 1686POPC   C4B18798  19.390  18.270   5.832 -0.1250  0.0196  0.1582
 1687POPC   NC318799  10.455   8.249   3.490  0.1881  0.3968  0.0162
 1687POPC   PO418800  10.802   8.075   3.597 -0.0312  0.3042 -0.0567
 1687POPC   GL118801  10.917   7.865   3.976  0.2740 -0.0964 -0.0542
 1687POPC   GL218802  10.852   8.152   4.047 -0.3268  0.3957 -0.3469
 1687POPC   C1A18803  11.063   7.524   4.287 -0.0366 -0.1546 -0.0866
 1687POPC   D2A18804  11.004   7.126   4.637 -0.0414 -0.0537 -0.1005
 1687POPC   C3A18805  11.094   6.764   4.992  0.2213  0.0969  0.2668
 1687POPC   C4A18806  10.920   6.528   5.387  0.0371 -0.0166  0.1709
 1687POPC   C1B18807  10.731   8.261   4.407 -0.0980  0.3198 -0.4768
 1687POPC   C2B18808  10.709   8.409   4.827  0.0851  0.0614 -0.0159
 1687POPC   C3B18809  10.589   8.529   5.265 -0.1277  0.0177  0.2010
 1687POPC   C4B18810  10.735   8.510   5.719 -0.0096  0.0587 -0.1026
 1688POPC   NC318811   1.484   8.680   3.915 -0.0063  0.2185 -0.1679
 1688POPC   PO418812   1.153   8.946   3.908 -0.0419 -0.0708  0.2470
 1688POPC   GL118813   1.233   8.913   4.311  0.4039  0.0164  0.0107
 1688POPC   GL218814   1.174   9.169   4.340  0.0848  0.2601  0.1304
 1688POPC   C1A18815   1.351   8.833   4.713 -0.1896  0.3295  0.1787
 1688POPC   D2A18816   1.563   8.792   5.149  0.0069  0.1728  0.0236
 1688POPC   C3A18817   1.807   8.758   5.582  0.2800  0.0554  0.1265
 1688POPC   C4A18818   1.870   8.720   6.058 -0.0173 -0.0046  0.1507
 1688POPC   C1B18819   1.283   9.287   4.648  0.1516 -0.0815  0.1396
 1688POPC   C2B18820   1.372   9.381   5.036 -0.2686 -0.1498  0.2205
 1688POPC   C3B18821   1.528   9.393   5.480 -0.0301  0.0125  0.0096
 1688POPC   C4B18822   1.611   9.125   5.919  0.2994 -0.1059 -0.1441
 1689POPC   NC318823  13.459  17.077   3.655 -0.0271 -0.1844 -0.2619
 1689POPC   PO418824  13.625  16.716   3.814  0.4096  0.0039 -0.0247
 1689POPC   GL118825  13.873  16.620   4.070 -0.1352  0.0131  0.2691
 1689POPC   GL218826  13.877  16.956   4.124 -0.3598  0.0797 -0.3305
 1689POPC   C1A18827  13.908  16.555   4.536 -0.0074  0.0455 -0.2024
 1689POPC   D2A18828  13.945  16.298   4.957 -0.0601  0.0496 -0.0785
 1689POPC   C3A18829  13.724  16.259   5.347  0.0329  0.0213  0.0839
 1689POPC   C4A18830  13.807  16.579   5.758  0.1546  0.4513  0.0571
 1689POPC   C1B18831  13.934  16.979   4.514  0.1244 -0.1605 -0.1742
 1689POPC   C2B18832  14.145  16.800   4.859 -0.0268  0.1901  0.1989
 1689POPC   C3B18833  14.368  16.888   5.289 -0.0579 -0.3249  0.2954
 1689POPC   C4B18834  14.647  16.963   5.622 -0.3574 -0.0612 -0.3902
 1690POPC   NC318835   6.394  14.786   2.734 -0.2244 -0.0167  0.2242
 1690POPC   PO418836   6.410  14.549   3.070  0.0108  0.0024  0.2044
 1690POPC   GL118837   6.645  14.517   3.378  0.0346 -0.1745 -0.0192
 1690POPC   GL218838   6.752  14.684   3.478 -0.1520 -0.2910  0.1434
 1690POPC   C1A18839   6.615  14.171   3.661 -0.2891  0.2364  0.1866
 1690POPC   D2A18840   6.819  14.025   4.136 -0.0381 -0.2722 -0.2944
 1690POPC   C3A18841   7.207  13.910   4.352  0.0539  0.0409  0.2520
 1690POPC   C4A18842   7.656  13.677   4.415  0.1975 -0.0888  0.0221
 1690POPC   C1B18843   6.745  14.576   3.774  0.2769  0.0475 -0.2102
 1690POPC   C2B18844   6.623  14.533   4.191  0.1637 -0.2737  0.1588
 1690POPC   C3B18845   6.294  14.682   4.580 -0.0659  0.0558  0.2508
 1690POPC   C4B18846   5.951  14.869   4.832  0.1373  0.2332  0.2798
 1691POPC   NC318847  18.231  27.405   3.426 -0.1694 -0.0363 -0.0360
 1691POPC   PO418848  18.218  27.774   3.610  0.2388  0.2888 -0.2097
 1691POPC   GL118849  18.039  27.762   3.970 -0.3788  0.3937  0.0305
 1691POPC   GL218850  18.051  27.481   4.052  0.0637  0.1202  0.0539
 1691POPC   C1A18851  17.939  27.943   4.374  0.2259 -0.1466  0.2503
 1691POPC   D2A18852  18.034  28.245   4.779  0.2014 -0.0236  0.1253
 1691POPC   C3A18853  17.764  28.371   5.149  0.1597 -0.0547 -0.1188
 1691POPC   C4A18854  17.439  28.276   5.476 -0.1515  0.0493 -0.2778
 1691POPC   C1B18855  18.367  27.471   4.236 -0.5309  0.0013  0.1797
 1691POPC   C2B18856  18.353  27.545   4.650  0.3101  0.0559 -0.2416
 1691POPC   C3B18857  18.302  27.607   5.149 -0.2694 -0.0922 -0.0941
 1691POPC   C4B18858  18.363  27.811   5.610  0.0195 -0.5299 -0.2959
 1692POPC   NC318859   7.964  10.740   3.221 -0.0992 -0.0097  0.0259
 1692POPC   PO418860   7.658  11.015   3.369 -0.0011  0.2914 -0.3508
 1692POPC   GL118861   7.655  11.383   3.552 -0.0557  0.1445  0.2797
 1692POPC   GL218862   7.892  11.466   3.534  0.1605  0.3035  0.2262
 1692POPC   C1A18863   7.457  11.381   3.913 -0.1716 -0.1615  0.1034
 1692POPC   D2A18864   7.515  11.444   4.386  0.3424  0.1740  0.2353
 1692POPC   C3A18865   7.266  11.779   4.561 -0.1627 -0.0095  0.0958
 1692POPC   C4A18866   6.814  11.853   4.900 -0.0464  0.1464  0.2420
 1692POPC   C1B18867   7.904  11.533   3.910 -0.2147  0.0843 -0.2310
 1692POPC   C2B18868   7.911  11.712   4.255 -0.0614  0.0412 -0.2094
 1692POPC   C3B18869   7.782  11.764   4.689 -0.1445  0.1355  0.0365
 1692POPC   C4B18870   7.859  11.790   5.183 -0.0526 -0.1879  0.1356
 1693POPC   NC318871  10.678  11.603   3.498 -0.1389  0.0254 -0.3072
 1693POPC   PO418872  10.991  11.696   3.678 -0.0785 -0.1236 -0.2187
 1693POPC   GL118873  10.905  12.031   3.911 -0.1170 -0.1511 -0.0868
 1693POPC   GL218874  11.122  12.143   3.860  0.3495 -0.0375 -0.0422
 1693POPC   C1A18875  11.005  11.866   4.321  0.3662  0.0942 -0.0292
 1693POPC   D2A18876  10.872  11.829   4.820  0.1958  0.1306 -0.4525
 1693POPC   C3A18877  10.829  12.218   5.206  0.0898  0.1373  0.0336
 1693POPC   C4A18878  11.076  12.328   4.795 -0.6027 -0.1684  0.2124
 1693POPC   C1B18879  11.168  12.319   4.165  0.0100  0.0840 -0.0630
 1693POPC   C2B18880  11.093  12.636   4.397  0.1394 -0.1383 -0.5956
 1693POPC   C3B18881  11.352  12.773   4.768 -0.1650  0.1992 -0.0068
 1693POPC   C4B18882  11.720  12.778   5.105  0.0898 -0.1052  0.3842
 1694POPC   NC318883  22.475   2.072   3.729 -0.0468 -0.3044 -0.0450
 1694POPC   PO418884  22.146   2.271   3.690  0.0541  0.2099  0.1015
 1694POPC   GL118885  21.915   1.954   3.869  0.4280  0.0880  0.1126
 1694POPC   GL218886  22.170   1.800   3.987 -0.2189  0.0758  0.2236
 1694POPC   C1A18887  21.697   2.088   4.292 -0.0013  0.0675  0.2222
 1694POPC   D2A18888  21.357   2.246   4.655 -0.0450  0.2114 -0.0830
 1694POPC   C3A18889  21.155   2.019   4.277  0.1087 -0.0271  0.1289
 1694POPC   C4A18890  20.995   1.932   3.884 -0.0421 -0.1024 -0.1395
 1694POPC   C1B18891  22.030   1.771   4.317  0.0022  0.0010  0.3331
 1694POPC   C2B18892  22.047   1.628   4.771  0.0044  0.0778  0.2580
 1694POPC   C3B18893  22.018   1.586   5.223 -0.1722 -0.2303 -0.1523
 1694POPC   C4B18894  22.183   1.566   5.660  0.2034  0.1243  0.0056
 1695POPC   NC318895  19.460   1.954   3.422  0.0342  0.0557  0.0845
 1695POPC   PO418896  19.678   1.723   3.652  0.0140 -0.0720  0.3873
 1695POPC   GL118897  19.604   1.496   3.865  0.0963  0.4442 -0.2290
 1695POPC   GL218898  19.632   1.629   4.106  0.0678  0.0787  0.2729
 1695POPC   C1A18899  19.888   1.255   4.088  0.3025  0.0221 -0.2446
 1695POPC   D2A18900  20.090   1.253   4.547 -0.1245 -0.1193  0.0825
 1695POPC   C3A18901  20.396   1.162   4.907  0.2585 -0.4587  0.0802
 1695POPC   C4A18902  20.466   1.110   5.404 -0.4315 -0.0806  0.1915
 1695POPC   C1B18903  19.853   1.698   4.395  0.0637  0.0422 -0.1744
 1695POPC   C2B18904  20.110   1.866   4.703 -0.0142  0.0156 -0.0642
 1695POPC   C3B18905  20.481   1.803   4.933 -0.1081  0.1484 -0.3165
 1695POPC   C4B18906  20.601   1.687   5.440 -0.1208 -0.2796 -0.1771
 1696POPC   NC318907  12.886  20.621   2.867  0.0757  0.0989  0.2472
 1696POPC   PO418908  13.086  20.664   3.171 -0.0138 -0.0928 -0.0404
 1696POPC   GL118909  13.103  20.447   3.481  0.0739  0.1197 -0.3884
 1696POPC   GL218910  13.178  20.642   3.657 -0.0238 -0.1259  0.0412
 1696POPC   C1A18911  12.823  20.113   3.742 -0.1170 -0.1250  0.0424
 1696POPC   D2A18912  12.511  19.861   3.954  0.1618  0.2232 -0.2170
 1696POPC   C3A18913  12.241  19.883   4.317  0.1304  0.2696 -0.0183
 1696POPC   C4A18914  11.793  19.773   4.505  0.0052  0.1612  0.0742
 1696POPC   C1B18915  13.278  20.316   3.877  0.0056  0.0030 -0.1196
 1696POPC   C2B18916  13.307  20.100   4.211  0.1882  0.3244  0.2055
 1696POPC   C3B18917  13.334  19.839   4.647  0.0980  0.1016  0.5212
 1696POPC   C4B18918  13.358  19.727   5.092 -0.1323 -0.3423 -0.3025
 1697POPC   NC318919  13.502  14.934   3.783  0.1425 -0.1283 -0.0559
 1697POPC   PO418920  13.333  14.568   3.746 -0.2215 -0.1692  0.0681
 1697POPC   GL118921  13.044  14.575   3.972 -0.1070  0.1378 -0.4792
 1697POPC   GL218922  13.150  14.820   4.104 -0.3800 -0.0233  0.0472
 1697POPC   C1A18923  12.790  14.295   4.186  0.0195 -0.0947  0.3612
 1697POPC   D2A18924  12.633  14.357   4.665  0.2996 -0.2383 -0.0764
 1697POPC   C3A18925  12.490  14.292   5.096 -0.0763 -0.3224 -0.0062
 1697POPC   C4A18926  12.311  14.213   5.560  0.0372 -0.0988  0.0601
 1697POPC   C1B18927  13.182  14.610   4.428  0.0273 -0.1609 -0.1292
 1697POPC   C2B18928  13.091  14.510   4.810  0.0389 -0.0805 -0.1390
 1697POPC   C3B18929  13.001  14.352   5.209  0.1456 -0.3048 -0.1845
 1697POPC   C4B18930  12.807  14.148   5.674  0.0629 -0.2237  0.1334
 1698POPC   NC318931  20.446  23.033   3.628 -0.1365 -0.0829 -0.1959
 1698POPC   PO418932  20.345  22.724   3.717  0.0471 -0.0637  0.0359
 1698POPC   GL118933  20.238  22.686   4.108  0.2210  0.0067 -0.2627
 1698POPC   GL218934  20.241  22.438   4.100  0.1888 -0.0119  0.0944
 1698POPC   C1A18935  20.537  22.839   4.444 -0.1559 -0.3016  0.0277
 1698POPC   D2A18936  20.744  23.262   4.755 -0.1706  0.3483 -0.2925
 1698POPC   C3A18937  20.731  23.710   4.983  0.1778  0.1088 -0.0240
 1698POPC   C4A18938  20.433  24.082   5.152  0.0888  0.2250 -0.1241
 1698POPC   C1B18939  20.408  22.417   4.428 -0.2624 -0.1988 -0.2762
 1698POPC   C2B18940  20.654  22.453   4.768  0.3385  0.1275  0.2685
 1698POPC   C3B18941  21.149  22.464   5.018  0.0042  0.3024  0.0111
 1698POPC   C4B18942  21.706  22.413   5.153  0.0113  0.0821  0.1205
 1699POPC   NC318943  27.555   9.495   3.454 -0.3219  0.2876  0.3074
 1699POPC   PO418944  27.708   9.595   3.760  0.0662 -0.1081  0.1554
 1699POPC   GL118945  27.609   9.461   4.162  0.2873  0.2149  0.3917
 1699POPC   GL218946  27.535   9.759   4.179  0.3889  0.2654 -0.0184
 1699POPC   C1A18947  27.499   9.537   4.635  0.0238  0.0696  0.1806
 1699POPC   D2A18948  27.662   9.668   5.102 -0.0398  0.3243  0.0833
 1699POPC   C3A18949  27.774   9.902   5.431  0.3354  0.0882  0.1428
 1699POPC   C4A18950  28.166  10.085   5.746  0.2613  0.2551  0.0720
 1699POPC   C1B18951  27.266   9.859   4.425 -0.3803 -0.2816  0.0008
 1699POPC   C2B18952  27.073  10.180   4.655  0.1227 -0.2477 -0.2594
 1699POPC   C3B18953  26.964  10.315   5.136 -0.0883 -0.3024  0.1432
 1699POPC   C4B18954  26.993  10.833   5.336  0.2319 -0.0289 -0.4960
 1700POPC   NC318955  18.551  17.226   3.285 -0.0056 -0.1196  0.2758
 1700POPC   PO418956  18.163  17.096   3.308  0.6125  0.0462  0.0457
 1700POPC   GL118957  18.168  16.994   3.755  0.0905 -0.0464  0.1886
 1700POPC   GL218958  17.904  16.832   3.703 -0.1414 -0.4160  0.3767
 1700POPC   C1A18959  18.036  17.267   4.138 -0.0033 -0.1581 -0.4499
 1700POPC   D2A18960  18.247  17.180   4.571 -0.4818 -0.2090 -0.2065
 1700POPC   C3A18961  18.199  17.190   5.017 -0.0646  0.0650  0.0644
 1700POPC   C4A18962  18.343  17.183   5.466 -0.1340  0.1045 -0.0449
 1700POPC   C1B18963  17.846  16.818   4.030 -0.1574 -0.1227  0.0869
 1700POPC   C2B18964  17.861  16.826   4.439 -0.0226 -0.1459  0.3253
 1700POPC   C3B18965  17.819  16.883   4.915  0.0026  0.1964  0.2730
 1700POPC   C4B18966  17.861  17.195   5.325 -0.2469 -0.1119  0.3084
 1701POPC   NC318967   9.673  14.463   3.326 -0.0815  0.3793 -0.0490
 1701POPC   PO418968   9.461  14.162   3.158 -0.0404 -0.2355 -0.2287
 1701POPC   GL118969   9.421  14.134   3.574 -0.3613 -0.0999 -0.4023
 1701POPC   GL218970   9.267  13.874   3.550 -0.1481  0.0929  0.2412
 1701POPC   C1A18971   9.530  14.114   4.026 -0.0227 -0.0294 -0.0388
 1701POPC   D2A18972   9.453  14.315   4.518  0.0526 -0.0126  0.1791
 1701POPC   C3A18973   9.383  13.931   4.806  0.2082 -0.1368 -0.1245
 1701POPC   C4A18974   9.540  13.916   5.274 -0.0819 -0.2195  0.2510
 1701POPC   C1B18975   9.089  13.804   3.864  0.3955 -0.2094 -0.1976
 1701POPC   C2B18976   9.092  13.785   4.280 -0.2095 -0.1422  0.0999
 1701POPC   C3B18977   8.986  13.640   4.724  0.0043  0.1042  0.1177
 1701POPC   C4B18978   9.239  13.589   5.100 -0.2341 -0.1704  0.1535
 1702POPC   NC318979  24.349  16.504   3.546  0.2802 -0.0933  0.1705
 1702POPC   PO418980  24.051  16.765   3.465 -0.0881  0.2078  0.3725
 1702POPC   GL118981  23.731  16.825   3.791  0.3618  0.1429  0.4229
 1702POPC   GL218982  23.933  16.862   3.964 -0.2944  0.0606  0.0801
 1702POPC   C1A18983  23.396  17.091   3.872 -0.0246  0.1176  0.2496
 1702POPC   D2A18984  22.978  17.258   3.895  0.0159 -0.0832  0.1941
 1702POPC   C3A18985  23.011  17.554   4.262 -0.1424 -0.0316 -0.1400
 1702POPC   C4A18986  22.723  17.595   4.671  0.0107 -0.2869  0.0945
 1702POPC   C1B18987  23.763  16.922   4.182  0.1097 -0.2181 -0.1668
 1702POPC   C2B18988  23.534  16.921   4.539  0.1767 -0.1979 -0.4172
 1702POPC   C3B18989  23.388  16.799   5.056  0.0583  0.1243 -0.2737
 1702POPC   C4B18990  23.287  16.397   5.370 -0.0756 -0.4562  0.1022
 1703POPC   NC318991  18.298  17.899   3.556 -0.2250 -0.3107 -0.0261
 1703POPC   PO418992  17.948  18.062   3.748 -0.0292  0.0190 -0.2250
 1703POPC   GL118993  17.735  17.926   4.174 -0.3004 -0.2491 -0.0537
 1703POPC   GL218994  17.778  17.650   4.177 -0.2518  0.0888  0.1311
 1703POPC   C1A18995  17.551  18.064   4.567  0.0425 -0.1118  0.1694
 1703POPC   D2A18996  17.521  18.005   5.028  0.1815 -0.2806  0.0991
 1703POPC   C3A18997  17.627  17.647   5.277  0.0397 -0.0042 -0.4100
 1703POPC   C4A18998  17.715  17.597   5.733  0.0495  0.2404  0.0276
 1703POPC   C1B18999  17.883  17.560   4.497 -0.1232  0.2267  0.0617
 1703POPC   C2B19000  17.852  17.498   4.903 -0.0982 -0.0021  0.1112
 1703POPC   C3B19001  18.159  17.630   5.242 -0.1363  0.1955 -0.0821
 1703POPC   C4B19002  18.583  17.650   5.471 -0.1026 -0.3616  0.0942
 1704POPC   NC319003  14.451   1.949   3.733 -0.0780  0.2824  0.0627
 1704POPC   PO419004  14.500   2.346   3.790 -0.3548 -0.0374  0.2723
 1704POPC   GL119005  14.402   2.460   4.166 -0.0762  0.3892 -0.3478
 1704POPC   GL219006  14.206   2.537   4.260  0.1023  0.1746  0.3440
 1704POPC   C1A19007  14.657   2.356   4.540  0.2051  0.3645 -0.1572
 1704POPC   D2A19008  14.571   2.441   5.021  0.0767  0.0102  0.1892
 1704POPC   C3A19009  14.765   2.701   5.356  0.0904 -0.1113  0.1466
 1704POPC   C4A19010  14.968   3.055   5.662  0.2071  0.1124 -0.1646
 1704POPC   C1B19011  14.381   2.724   4.558 -0.0359 -0.0230 -0.2212
 1704POPC   C2B19012  14.559   2.957   4.810  0.1061  0.1532 -0.0580
 1704POPC   C3B19013  14.638   3.172   5.258 -0.2521  0.1998  0.2080
 1704POPC   C4B19014  14.600   3.536   5.609  0.0790  0.0456  0.2522
 1705POPC   NC319015   7.268  16.850   3.346 -0.3874 -0.2899 -0.0834
 1705POPC   PO419016   7.377  16.540   3.576  0.0057  0.1166  0.0821
 1705POPC   GL119017   7.130  16.506   3.823 -0.1614 -0.0426  0.1027
 1705POPC   GL219018   7.317  16.422   4.076 -0.0519 -0.0007  0.1145
 1705POPC   C1A19019   6.724  16.433   4.065  0.1650  0.3559  0.1717
 1705POPC   D2A19020   6.489  16.673   4.394 -0.0994 -0.0656 -0.0412
 1705POPC   C3A19021   6.287  16.637   4.782  0.2238 -0.4071  0.0154
 1705POPC   C4A19022   6.162  16.666   5.247 -0.5229 -0.0512  0.2830
 1705POPC   C1B19023   7.069  16.287   4.358  0.0591  0.0359  0.1610
 1705POPC   C2B19024   6.964  16.026   4.699  0.0941 -0.0416 -0.1130
 1705POPC   C3B19025   7.049  15.754   5.128 -0.5441  0.1809 -0.2742
 1705POPC   C4B19026   7.383  16.071   5.353 -0.3133 -0.0719 -0.2799
 1706POPC   NC319027  11.428  17.586   3.616 -0.2452 -0.1723  0.4412
 1706POPC   PO419028  11.838  17.617   3.608 -0.0732  0.3030 -0.1777
 1706POPC   GL119029  12.118  17.468   4.018  0.1263 -0.1872 -0.0875
 1706POPC   GL219030  12.274  17.373   3.840  0.1943  0.2748  0.2098
 1706POPC   C1A19031  12.135  17.307   4.400 -0.1202 -0.3208 -0.0779
 1706POPC   D2A19032  12.086  16.974   4.739  0.0532 -0.0398 -0.1833
 1706POPC   C3A19033  11.645  16.963   4.931 -0.0118  0.0579 -0.1653
 1706POPC   C4A19034  11.574  16.979   5.434  0.1025  0.0339 -0.0009
 1706POPC   C1B19035  12.503  17.183   4.054 -0.1294  0.0547 -0.0223
 1706POPC   C2B19036  12.845  17.167   4.330 -0.2110  0.3868  0.1430
 1706POPC   C3B19037  13.005  17.058   4.774 -0.1544  0.2500  0.1437
 1706POPC   C4B19038  13.061  16.973   5.258 -0.0666  0.0571 -0.3783
 1707POPC   NC319039  21.423   0.626   3.549 -0.2162  0.0880 -0.0579
 1707POPC   PO419040  21.122   0.895   3.475 -0.0982  0.0181 -0.0344
 1707POPC   GL119041  21.054   0.988   3.906 -0.3094 -0.0169 -0.2381
 1707POPC   GL219042  21.027   1.280   3.822  0.4967  0.2248  0.0305
 1707POPC   C1A19043  21.311   0.985   4.323 -0.0443  0.2232 -0.2443
 1707POPC   D2A19044  21.702   1.155   4.556  0.1507  0.0008 -0.0294
 1707POPC   C3A19045  21.641   1.292   5.024  0.2801 -0.0753 -0.3685
 1707POPC   C4A19046  21.725   1.282   5.541  0.2040 -0.3258  0.1428
 1707POPC   C1B19047  21.087   1.513   4.096 -0.4678 -0.1384  0.2191
 1707POPC   C2B19048  21.096   1.372   4.475 -0.0963  0.1447 -0.3439
 1707POPC   C3B19049  21.224   1.065   4.805  0.2235 -0.1026 -0.2634
 1707POPC   C4B19050  21.284   0.711   5.155  0.3089 -0.2216 -0.0099
 1708POPC   NC319051  12.471  27.234   3.582 -0.0273  0.1525 -0.0933
 1708POPC   PO419052  12.217  26.934   3.708 -0.3283 -0.1716 -0.0391
 1708POPC   GL119053  11.936  27.049   4.014  0.2184 -0.1710  0.3329
 1708POPC   GL219054  11.770  26.734   4.045  0.2100  0.0728  0.4045
 1708POPC   C1A19055  11.685  27.372   4.247  0.1156 -0.0990 -0.6023
 1708POPC   D2A19056  11.591  27.481   4.690  0.1507 -0.1237  0.1473
 1708POPC   C3A19057  11.388  27.549   5.166 -0.3883  0.1413 -0.0193
 1708POPC   C4A19058  11.151  27.481   5.574  0.2206 -0.2050 -0.1419
 1708POPC   C1B19059  11.800  26.471   4.317  0.3021 -0.6911  0.0877
 1708POPC   C2B19060  11.733  26.095   4.486  0.1116 -0.1741 -0.1408
 1708POPC   C3B19061  11.701  25.781   4.876  0.1690  0.0120  0.2293
 1708POPC   C4B19062  11.622  25.404   5.133 -0.1651 -0.0393  0.0523
 1709POPC   NC319063  25.080   1.993   3.836 -0.0572 -0.2385  0.1803
 1709POPC   PO419064  25.109   2.350   3.714 -0.1438 -0.4772 -0.0219
 1709POPC   GL119065  25.245   2.367   4.155 -0.1542 -0.1912  0.2116
 1709POPC   GL219066  24.963   2.359   4.202 -0.0364 -0.3193 -0.4355
 1709POPC   C1A19067  25.268   2.158   4.527  0.0767  0.1342 -0.2113
 1709POPC   D2A19068  25.268   2.050   5.040 -0.0478  0.4876 -0.3615
 1709POPC   C3A19069  25.272   2.129   5.470 -0.0121  0.0154 -0.0573
 1709POPC   C4A19070  25.376   2.079   5.957 -0.1455 -0.3488  0.1285
 1709POPC   C1B19071  24.888   2.664   4.494  0.1049  0.2147 -0.0991
 1709POPC   C2B19072  24.870   2.878   4.885  0.0884  0.0853 -0.0490
 1709POPC   C3B19073  24.934   2.981   5.352 -0.2756  0.3591  0.0764
 1709POPC   C4B19074  25.040   3.181   5.770 -0.2696  0.0302 -0.2156
 1710POPC   NC319075  19.429  16.098   3.625 -0.0714  0.0764 -0.1235
 1710POPC   PO419076  19.640  16.368   3.507  0.4991 -0.0571 -0.0869
 1710POPC   GL119077  19.962  16.339   3.719 -0.0314  0.0462  0.6207
 1710POPC   GL219078  20.124  16.115   3.611 -0.1248  0.0717  0.1544
 1710POPC   C1A19079  20.197  16.698   3.944  0.2427  0.1545 -0.0384
 1710POPC   D2A19080  20.349  16.638   4.416 -0.0241  0.1281 -0.1665
 1710POPC   C3A19081  20.659  16.745   4.647 -0.1055  0.2226 -0.0703
 1710POPC   C4A19082  20.959  16.615   5.049  0.0465 -0.1750 -0.1221
 1710POPC   C1B19083  20.219  15.975   3.982 -0.1758  0.0175  0.0186
 1710POPC   C2B19084  20.370  15.805   4.276 -0.3451  0.0465 -0.4301
 1710POPC   C3B19085  20.714  15.669   4.636  0.0642  0.1172  0.2758
 1710POPC   C4B19086  20.843  15.598   5.134 -0.1071  0.0522 -0.3440
 1711POPC   NC319087  18.576  10.476   3.335 -0.0599 -0.0882 -0.1470
 1711POPC   PO419088  18.734  10.140   3.482  0.1585  0.2094 -0.1064
 1711POPC   GL119089  18.437  10.181   3.781 -0.2025  0.3364 -0.0397
 1711POPC   GL219090  18.587  10.439   3.813  0.1021 -0.0766 -0.0751
 1711POPC   C1A19091  18.326   9.863   4.081  0.3571 -0.0386 -0.2645
 1711POPC   D2A19092  18.463   9.980   4.511 -0.1149  0.0643 -0.0088
 1711POPC   C3A19093  18.459  10.369   4.802  0.1645  0.3368  0.0606
 1711POPC   C4A19094  18.369  10.791   5.049 -0.0818 -0.0565  0.1419
 1711POPC   C1B19095  18.475  10.601   4.108 -0.1153  0.3772 -0.0144
 1711POPC   C2B19096  18.221  10.683   4.434 -0.0354 -0.3536  0.3335
 1711POPC   C3B19097  17.910  10.660   4.796 -0.0328 -0.3123  0.0213
 1711POPC   C4B19098  17.709  10.882   5.189 -0.0366 -0.0755  0.1642
 1712POPC   NC319099   2.580  22.617   3.908  0.1974  0.1926  0.3242
 1712POPC   PO419100   2.197  22.492   4.021 -0.0650  0.1318  0.3033
 1712POPC   GL119101   2.029  22.357   4.351  0.2691 -0.0070 -0.1393
 1712POPC   GL219102   2.050  22.637   4.433  0.0270 -0.0327  0.1622
 1712POPC   C1A19103   1.806  22.115   4.641  0.2776  0.2597 -0.2915
 1712POPC   D2A19104   1.302  22.225   4.812  0.3957 -0.1398 -0.0259
 1712POPC   C3A19105   0.976  22.519   4.999  0.1063  0.1488  0.2725
 1712POPC   C4A19106   1.020  22.907   5.222 -0.1940 -0.2116 -0.3504
 1712POPC   C1B19107   2.387  22.599   4.553  0.0611 -0.0184 -0.1996
 1712POPC   C2B19108   2.709  22.704   4.801  0.0378  0.3941 -0.0891
 1712POPC   C3B19109   3.125  22.730   4.957  0.1020  0.1152 -0.3045
 1712POPC   C4B19110   3.287  22.613   5.423  0.0894 -0.2365 -0.4123
 1713POPC   NC319111   6.526   9.287   3.736 -0.1591 -0.1081  0.1014
 1713POPC   PO419112   6.915   9.339   3.572  0.3384 -0.0745  0.0697
 1713POPC   GL119113   7.214   9.496   3.852 -0.2828 -0.2817 -0.1735
 1713POPC   GL219114   6.955   9.445   4.016  0.1796 -0.1233 -0.0353
 1713POPC   C1A19115   7.387   9.627   4.171  0.1668 -0.1755 -0.0319
 1713POPC   D2A19116   7.818   9.585   4.402  0.0320 -0.1233  0.1765
 1713POPC   C3A19117   8.014   9.652   4.780 -0.0442  0.1770 -0.0347
 1713POPC   C4A19118   8.098   9.900   5.208 -0.1371  0.0835  0.0286
 1713POPC   C1B19119   6.909   9.316   4.413  0.7985  0.3348  0.2369
 1713POPC   C2B19120   6.873   9.227   4.797 -0.1152  0.0203  0.3082
 1713POPC   C3B19121   6.974   9.049   5.247 -0.2612 -0.2332 -0.0128
 1713POPC   C4B19122   6.935   8.516   5.365  0.0122 -0.0396 -0.0669
 1714POPC   NC319123   9.162  27.546   3.446 -0.0678 -0.1107 -0.2111
 1714POPC   PO419124   9.040  27.175   3.367 -0.1947 -0.1409  0.2220
 1714POPC   GL119125   8.941  27.091   3.734 -0.1441  0.1975 -0.3064
 1714POPC   GL219126   9.201  27.069   3.922 -0.0516 -0.0237 -0.3614
 1714POPC   C1A19127   8.689  26.901   4.051  0.2247 -0.3539  0.4597
 1714POPC   D2A19128   8.537  26.527   4.358  0.0516 -0.4177 -0.1164
 1714POPC   C3A19129   8.577  26.610   4.825  0.0578  0.2215  0.0232
 1714POPC   C4A19130   8.833  26.795   5.216  0.2012  0.2322  0.2841
 1714POPC   C1B19131   9.155  27.319   4.208  0.0231  0.3660  0.0995
 1714POPC   C2B19132   9.197  27.519   4.515 -0.1996 -0.4237 -0.0685
 1714POPC   C3B19133   9.164  27.687   4.918  0.1044  0.0899 -0.1024
 1714POPC   C4B19134   9.279  27.682   5.352 -0.3283  0.3033  0.0574
 1715POPC   NC319135   9.794   6.296   3.546 -0.0695  0.0964  0.2108
 1715POPC   PO419136   9.718   5.952   3.369 -0.2127  0.1050 -0.2920
 1715POPC   GL119137   9.761   5.621   3.723  0.0771  0.1070 -0.1577
 1715POPC   GL219138   9.971   5.874   3.809  0.2081 -0.0272 -0.0698
 1715POPC   C1A19139   9.883   5.396   4.065  0.2949  0.4359  0.0378
 1715POPC   D2A19140   9.787   5.519   4.552  0.0117 -0.0292 -0.1538
 1715POPC   C3A19141   9.790   5.459   4.966 -0.0611 -0.2152 -0.2135
 1715POPC   C4A19142   9.455   5.789   4.850  0.0593  0.2448 -0.0084
 1715POPC   C1B19143  10.132   5.757   4.134  0.3017  0.0333 -0.1596
 1715POPC   C2B19144  10.351   5.532   4.461 -0.1557  0.1881  0.0939
 1715POPC   C3B19145  10.500   5.222   4.741 -0.1469  0.3200 -0.0295
 1715POPC   C4B19146  10.410   4.783   4.858 -0.1628  0.0458 -0.2924
 1716POPC   NC319147   4.082  19.678   3.420 -0.0198  0.3363 -0.0629
 1716POPC   PO419148   4.204  19.302   3.431 -0.0359 -0.0495  0.0551
 1716POPC   GL119149   4.157  19.185   3.820  0.2986 -0.3082  0.1746
 1716POPC   GL219150   3.984  19.426   3.926 -0.0041 -0.3566  0.1072
 1716POPC   C1A19151   4.276  18.969   4.132 -0.0925  0.0383  0.2115
 1716POPC   D2A19152   4.130  18.934   4.575 -0.0389 -0.0560  0.0411
 1716POPC   C3A19153   4.051  18.875   5.030  0.0457  0.0525  0.2050
 1716POPC   C4A19154   3.828  18.706   5.437  0.0319  0.1173  0.2421
 1716POPC   C1B19155   4.073  19.462   4.332 -0.0654  0.1210 -0.0441
 1716POPC   C2B19156   4.104  19.651   4.621  0.0551  0.3817  0.0735
 1716POPC   C3B19157   4.311  19.738   5.097  0.0105 -0.1003  0.2356
 1716POPC   C4B19158   4.663  19.673   5.409  0.1397 -0.0206  0.1611
 1717POPC   NC319159  13.506   4.879   3.002  0.3238 -0.1143 -0.3399
 1717POPC   PO419160  13.245   4.631   3.041 -0.1757  0.0947  0.0725
 1717POPC   GL119161  13.193   4.759   3.355 -0.0817 -0.3592  0.1221
 1717POPC   GL219162  13.402   5.008   3.464 -0.3908 -0.1581 -0.2360
 1717POPC   C1A19163  12.900   4.727   3.737 -0.0769  0.1529 -0.0442
 1717POPC   D2A19164  12.536   5.012   3.960  0.0832  0.1566 -0.1093
 1717POPC   C3A19165  12.595   5.167   4.387 -0.2727 -0.0040 -0.1352
 1717POPC   C4A19166  12.667   5.211   4.871  0.0444  0.0650  0.0430
 1717POPC   C1B19167  13.347   5.027   3.841 -0.0322  0.1128 -0.0784
 1717POPC   C2B19168  13.249   4.908   4.269 -0.3020 -0.1188  0.0988
 1717POPC   C3B19169  13.095   4.873   4.772  0.4437  0.5461 -0.0425
 1717POPC   C4B19170  13.558   4.859   5.007  0.0732 -0.0922  0.1263
 1718POPC   NC319171   7.290  18.992   3.229  0.1380  0.0134 -0.0611
 1718POPC   PO419172   7.513  18.792   3.436 -0.0497  0.1166 -0.0266
 1718POPC   GL119173   7.421  18.640   3.776 -0.3286 -0.3727  0.3046
 1718POPC   GL219174   7.735  18.785   3.905 -0.2456  0.1714 -0.0985
 1718POPC   C1A19175   7.092  18.810   4.082  0.2413  0.0666  0.1687
 1718POPC   D2A19176   7.000  18.740   4.591 -0.0253 -0.1339  0.0345
 1718POPC   C3A19177   6.873  18.488   5.002 -0.0600  0.1827  0.1908
 1718POPC   C4A19178   6.986  18.457   5.442 -0.0161  0.0331 -0.1858
 1718POPC   C1B19179   7.927  18.883   4.225  0.4198 -0.0074  0.3056
 1718POPC   C2B19180   7.952  18.896   4.644  0.0852  0.4317 -0.0521
 1718POPC   C3B19181   7.836  18.918   5.094  0.0031 -0.1349  0.5951
 1718POPC   C4B19182   7.917  18.948   5.525  0.0356  0.0871  0.1449
 1719POPC   NC319183  25.415  23.112   3.509 -0.2116  0.0109 -0.3614
 1719POPC   PO419184  25.070  22.929   3.506  0.1406 -0.0991  0.1586
 1719POPC   GL119185  24.962  22.967   3.922 -0.2506 -0.3019  0.1233
 1719POPC   GL219186  24.854  22.715   3.928 -0.0540 -0.1916  0.2459
 1719POPC   C1A19187  24.823  23.252   4.230  0.1690  0.0176 -0.2674
 1719POPC   D2A19188  24.791  23.651   4.478 -0.1012  0.4191  0.0719
 1719POPC   C3A19189  25.057  23.720   4.856  0.4394  0.1977 -0.1007
 1719POPC   C4A19190  25.279  23.433   5.201 -0.0835  0.0009  0.0904
 1719POPC   C1B19191  24.613  22.729   4.251  0.0049 -0.1805 -0.3290
 1719POPC   C2B19192  24.563  22.584   4.662  0.1700 -0.1328  0.2739
 1719POPC   C3B19193  24.645  22.276   5.060  0.0267  0.0761 -0.4973
 1719POPC   C4B19194  24.789  21.754   5.136 -0.0661  0.1399  0.3828
 1720POPC   NC319195   8.206   4.406   3.305  0.0372  0.1351 -0.2553
 1720POPC   PO419196   8.043   4.038   3.174  0.1636 -0.2561  0.0573
 1720POPC   GL119197   7.713   3.854   3.403  0.3233 -0.2644  0.3212
 1720POPC   GL219198   7.803   4.016   3.598 -0.1641 -0.0334  0.0403
 1720POPC   C1A19199   7.616   3.656   3.761 -0.0065 -0.1623 -0.0307
 1720POPC   D2A19200   7.318   3.325   3.965  0.1707  0.3652  0.0909
 1720POPC   C3A19201   7.206   3.302   4.428 -0.1598  0.2346  0.0123
 1720POPC   C4A19202   6.957   3.327   4.832 -0.2271 -0.2407 -0.2480
 1720POPC   C1B19203   7.652   4.076   3.930 -0.0663  0.1521  0.0582
 1720POPC   C2B19204   7.826   3.817   4.231 -0.3186 -0.2142  0.0053
 1720POPC   C3B19205   7.689   3.382   4.530 -0.1236 -0.2296  0.1743
 1720POPC   C4B19206   7.500   3.326   4.992 -0.0618 -0.2798 -0.0434
 1721POPC   NC319207  15.410  18.011   2.888 -0.2739 -0.2166  0.3203
 1721POPC   PO419208  15.521  17.767   3.166 -0.0867 -0.2226 -0.1470
 1721POPC   GL119209  15.358  17.703   3.574 -0.3467  0.0601  0.3345
 1721POPC   GL219210  15.079  17.781   3.480 -0.0322 -0.1062 -0.1843
 1721POPC   C1A19211  15.534  17.995   3.856  0.3613 -0.0854 -0.0817
 1721POPC   D2A19212  15.641  17.939   4.372 -0.3315 -0.0497  0.0320
 1721POPC   C3A19213  15.726  17.647   4.705  0.2289 -0.1067  0.0983
 1721POPC   C4A19214  16.020  17.649   5.107 -0.1083  0.2546 -0.1608
 1721POPC   C1B19215  14.771  17.667   3.665 -0.6495 -0.2061 -0.0917
 1721POPC   C2B19216  14.686  17.578   4.061  0.3933 -0.0896 -0.0605
 1721POPC   C3B19217  14.871  17.379   4.482  0.2543  0.3177  0.0561
 1721POPC   C4B19218  15.108  17.053   4.788  0.1952 -0.1739  0.1072
 1722POPC   NC319219  25.630   7.325   3.611 -0.2556 -0.1647  0.2780
 1722POPC   PO419220  25.627   7.714   3.583 -0.1233 -0.0257 -0.0876
 1722POPC   GL119221  25.707   7.832   4.007  0.2120  0.2886  0.0553
 1722POPC   GL219222  25.538   7.605   4.021 -0.1686 -0.3061  0.0822
 1722POPC   C1A19223  25.516   7.908   4.354  0.0216 -0.3725 -0.1500
 1722POPC   D2A19224  25.381   7.822   4.824 -0.2841 -0.2695 -0.1256
 1722POPC   C3A19225  25.603   7.766   5.256  0.1807  0.1707  0.0030
 1722POPC   C4A19226  25.564   7.459   5.672 -0.1155 -0.1359  0.1943
 1722POPC   C1B19227  25.224   7.539   4.206  0.3283  0.1728 -0.0763
 1722POPC   C2B19228  24.989   7.471   4.537  0.2378  0.2024 -0.4625
 1722POPC   C3B19229  24.927   7.618   4.967 -0.0255  0.0833  0.0509
 1722POPC   C4B19230  24.744   7.791   5.341 -0.1350 -0.1500 -0.0615
 1723POPC   NC319231  17.363  15.741   3.487 -0.1137  0.3088  0.1391
 1723POPC   PO419232  17.548  16.055   3.303 -0.3737  0.3110  0.1922
 1723POPC   GL119233  17.525  16.204   3.708 -0.0792 -0.0143 -0.1154
 1723POPC   GL219234  17.628  15.924   3.784  0.3021  0.2067 -0.0966
 1723POPC   C1A19235  17.480  16.520   3.928 -0.2282  0.4271 -0.1088
 1723POPC   D2A19236  17.312  16.769   4.286  0.0517  0.2949  0.4969
 1723POPC   C3A19237  17.365  16.692   4.764 -0.1831  0.1695  0.0194
 1723POPC   C4A19238  17.280  16.805   5.144 -0.3862 -0.1409 -0.1679
 1723POPC   C1B19239  17.566  15.847   4.120 -0.0335 -0.0690 -0.3543
 1723POPC   C2B19240  17.629  15.772   4.500  0.0284 -0.2755 -0.0633
 1723POPC   C3B19241  17.812  15.747   5.004 -0.1224  0.1047  0.0089
 1723POPC   C4B19242  18.205  15.960   5.209  0.1169  0.0324 -0.2193
 1724POPC   NC319243   0.543  18.764   4.314 -0.1352  0.1616  0.4181
 1724POPC   PO419244   0.687  18.399   4.317  0.3332  0.0351 -0.5757
 1724POPC   GL119245   0.750  18.199   4.664 -0.1490 -0.3305 -0.1968
 1724POPC   GL219246   0.488  18.181   4.799  0.1884  0.0390  0.2964
 1724POPC   C1A19247   0.954  18.020   4.871  0.1488 -0.0295  0.1496
 1724POPC   D2A19248   1.406  18.014   4.933 -0.3051  0.0404 -0.2754
 1724POPC   C3A19249   1.591  18.001   5.339  0.0739 -0.1424  0.1810
 1724POPC   C4A19250   1.848  18.049   5.741 -0.0815 -0.1844  0.2014
 1724POPC   C1B19251   0.597  18.265   5.161 -0.2333  0.2836  0.2654
 1724POPC   C2B19252   0.570  18.102   5.585 -0.0110 -0.0572  0.1188
 1724POPC   C3B19253   0.694  17.956   5.989 -0.0520 -0.3678  0.2379
 1724POPC   C4B19254   1.018  17.867   6.355 -0.2047  0.3135  0.1774
 1725POPC   NC319255   6.402  19.140   2.794  0.0565 -0.0361  0.0104
 1725POPC   PO419256   6.243  19.097   3.173  0.0769  0.0679 -0.0682
 1725POPC   GL119257   6.467  18.983   3.482  0.3121 -0.1498 -0.0088
 1725POPC   GL219258   6.513  19.173   3.692 -0.1555 -0.4055  0.2044
 1725POPC   C1A19259   6.607  18.744   3.826  0.3332  0.2587 -0.1836
 1725POPC   D2A19260   6.624  18.523   4.213  0.1215  0.2530  0.2282
 1725POPC   C3A19261   6.524  18.659   4.676  0.1688  0.0650  0.0933
 1725POPC   C4A19262   6.375  18.603   5.151 -0.0494 -0.0803 -0.1457
 1725POPC   C1B19263   6.501  19.060   4.099  0.0876 -0.0597  0.0496
 1725POPC   C2B19264   6.708  19.102   4.452 -0.3149  0.2602  0.0316
 1725POPC   C3B19265   6.921  19.197   4.854 -0.0241  0.0062 -0.1758
 1725POPC   C4B19266   6.939  19.484   5.273  0.0425  0.1566  0.0175
 1726POPC   NC319267  20.122   3.236   3.402  0.0001 -0.2526  0.3137
 1726POPC   PO419268  20.301   2.974   3.623  0.1655 -0.0492  0.0062
 1726POPC   GL119269  20.447   2.956   3.946 -0.0972 -0.1453  0.0551
 1726POPC   GL219270  20.421   3.283   4.047  0.0434 -0.2596  0.1249
 1726POPC   C1A19271  20.780   2.885   4.218  0.0374 -0.0473  0.3672
 1726POPC   D2A19272  21.146   2.805   4.570  0.2710  0.1013 -0.1701
 1726POPC   C3A19273  21.239   2.765   5.003 -0.0893  0.1517 -0.1589
 1726POPC   C4A19274  21.073   2.805   5.451 -0.0264 -0.0407  0.1233
 1726POPC   C1B19275  20.478   3.301   4.399  0.1216 -0.3018 -0.2273
 1726POPC   C2B19276  20.811   3.249   4.675  0.3403  0.3423 -0.1464
 1726POPC   C3B19277  21.337   3.276   4.801  0.0236  0.1023 -0.2071
 1726POPC   C4B19278  21.575   3.518   5.115  0.0682 -0.2463  0.0800
 1727POPC   NC319279   8.197  19.700   3.057  0.1013 -0.1647 -0.2809
 1727POPC   PO419280   7.928  19.829   3.339 -0.1172  0.1302 -0.1560
 1727POPC   GL119281   7.785  19.634   3.700 -0.1017 -0.0728  0.1779
 1727POPC   GL219282   8.046  19.637   3.814  0.1059 -0.0856  0.1126
 1727POPC   C1A19283   7.526  19.700   4.026  0.0971  0.2344 -0.4746
 1727POPC   D2A19284   7.433  19.775   4.474  0.1524 -0.1765 -0.1056
 1727POPC   C3A19285   7.587  19.975   4.836  0.1274  0.1751  0.1780
 1727POPC   C4A19286   7.765  20.156   5.232 -0.2135  0.0628  0.1839
 1727POPC   C1B19287   8.110  19.675   4.203 -0.4248 -0.2119  0.1323
 1727POPC   C2B19288   8.130  19.828   4.609  0.0252  0.0854 -0.2689
 1727POPC   C3B19289   8.352  19.921   4.988  0.1284 -0.1651  0.1428
 1727POPC   C4B19290   8.666  19.880   5.391 -0.0333 -0.0678 -0.0738
 1728POPC   NC319291   2.043   1.440   3.600  0.1024 -0.1630  0.1869
 1728POPC   PO419292   2.427   1.562   3.492 -0.1643 -0.2603 -0.0338
 1728POPC   GL119293   2.496   1.449   3.782  0.1199 -0.3013 -0.0353
 1728POPC   GL219294   2.451   1.203   3.861 -0.2626 -0.3089 -0.1854
 1728POPC   C1A19295   2.711   1.729   3.991 -0.4296  0.0517 -0.0730
 1728POPC   D2A19296   3.129   1.907   4.251  0.0034  0.1331 -0.1961
 1728POPC   C3A19297   3.156   1.810   4.679  0.1535 -0.0284 -0.0094
 1728POPC   C4A19298   2.994   1.863   5.160  0.0805 -0.3964 -0.2811
 1728POPC   C1B19299   2.323   1.119   4.200  0.2407  0.2152  0.0594
 1728POPC   C2B19300   2.231   1.094   4.641  0.0349  0.1157 -0.0307
 1728POPC   C3B19301   2.105   1.125   5.142 -0.0465 -0.1197  0.2790
 1728POPC   C4B19302   2.157   1.225   5.680 -0.2255  0.1236  0.1329
 1729POPC   NC319303  17.864  15.363   3.528  0.1565 -0.0193  0.2407
 1729POPC   PO419304  17.971  15.743   3.515 -0.0950 -0.1674 -0.0761
 1729POPC   GL119305  18.042  15.781   3.919  0.0730  0.0031 -0.1213
 1729POPC   GL219306  17.863  15.552   3.942 -0.0641  0.1935 -0.3564
 1729POPC   C1A19307  18.311  15.808   4.228 -0.1335  0.0976 -0.2860
 1729POPC   D2A19308  18.154  15.544   4.619  0.1797 -0.0040  0.1106
 1729POPC   C3A19309  18.402  15.893   4.745  0.3566 -0.3787  0.2114
 1729POPC   C4A19310  18.595  16.285   5.031 -0.1027 -0.0909 -0.0833
 1729POPC   C1B19311  17.861  15.423   4.273  0.3744  0.1027 -0.1045
 1729POPC   C2B19312  17.693  15.297   4.657  0.4239  0.0254  0.1651
 1729POPC   C3B19313  17.345  15.511   4.955 -0.0800 -0.0860  0.3292
 1729POPC   C4B19314  17.311  15.605   5.419  0.0043 -0.0571 -0.0713
 1730POPC   NC319315   9.354  17.431   3.620  0.1714 -0.0017  0.2137
 1730POPC   PO419316   9.198  17.777   3.515 -0.2415 -0.0712 -0.0129
 1730POPC   GL119317   9.181  18.025   3.773  0.1599 -0.1602  0.2692
 1730POPC   GL219318   8.990  17.822   3.875  0.1899 -0.2196  0.3334
 1730POPC   C1A19319   9.235  18.312   4.131 -0.1597  0.1436  0.0943
 1730POPC   D2A19320   9.300  18.642   4.463  0.2006  0.1954 -0.0520
 1730POPC   C3A19321   9.303  18.845   4.854 -0.0289  0.3978 -0.5236
 1730POPC   C4A19322   9.247  18.609   5.254  0.4612  0.3044  0.0641
 1730POPC   C1B19323   8.869  17.992   4.150  0.1450 -0.0603 -0.2092
 1730POPC   C2B19324   8.795  17.982   4.559  0.0119 -0.0051  0.1079
 1730POPC   C3B19325   8.785  17.933   5.034 -0.2794 -0.2075  0.2643
 1730POPC   C4B19326   8.379  18.044   5.258 -0.1426  0.4485  0.1020
 1731POPC   NC319327   6.898   0.378   3.879  0.1266  0.3080 -0.0165
 1731POPC   PO419328   6.508   0.438   3.819  0.1857  0.1780 -0.1900
 1731POPC   GL119329   6.464   0.517   4.219 -0.2579  0.1152  0.0224
 1731POPC   GL219330   6.638   0.266   4.288 -0.3038  0.1207 -0.2109
 1731POPC   C1A19331   6.082   0.520   4.426  0.0026  0.1640 -0.0494
 1731POPC   D2A19332   5.926   0.367   4.846  0.0342 -0.0640 -0.2593
 1731POPC   C3A19333   5.986   0.530   5.307  0.0891 -0.0275 -0.1629
 1731POPC   C4A19334   6.194   0.820   5.663  0.0165 -0.0801 -0.1369
 1731POPC   C1B19335   6.800   0.395   4.615 -0.0133 -0.2832 -0.0586
 1731POPC   C2B19336   6.825   0.302   4.966  0.0265  0.0697  0.0688
 1731POPC   C3B19337   6.420   0.266   5.332 -0.0447 -0.2702 -0.0734
 1731POPC   C4B19338   6.048   0.110   5.629 -0.0208 -0.1886 -0.3074
 1732POPC   NC319339  10.113  13.051   3.235 -0.1016  0.0096  0.4529
 1732POPC   PO419340  10.388  13.313   3.334 -0.0849 -0.2710 -0.0422
 1732POPC   GL119341  10.459  13.161   3.807  0.3567  0.0002 -0.0147
 1732POPC   GL219342  10.209  13.025   3.709  0.3864  0.3343  0.1101
 1732POPC   C1A19343  10.377  13.397   4.142  0.0379 -0.0648 -0.0750
 1732POPC   D2A19344  10.305  13.727   4.488  0.2167 -0.2032  0.1254
 1732POPC   C3A19345  10.014  13.904   4.883  0.0282 -0.1087  0.3146
 1732POPC   C4A19346  10.170  14.380   5.052  0.1516 -0.0964 -0.1401
 1732POPC   C1B19347  10.040  12.894   3.984 -0.2359 -0.0290  0.2328
 1732POPC   C2B19348  10.216  12.915   4.384 -0.1881  0.2613  0.2714
 1732POPC   C3B19349  10.366  12.920   4.853 -0.2928  0.0036 -0.1558
 1732POPC   C4B19350  10.321  13.122   5.304 -0.2396  0.3795  0.0288
 1733POPC   NC319351  15.729  10.207   3.219  0.1156 -0.0519 -0.3513
 1733POPC   PO419352  15.420   9.936   3.324 -0.0930  0.1828 -0.1709
 1733POPC   GL119353  15.602   9.832   3.687  0.4615  0.0016 -0.2000
 1733POPC   GL219354  15.577   9.532   3.583 -0.1783 -0.1418 -0.0488
 1733POPC   C1A19355  15.638   9.831   4.048  0.4685 -0.0450  0.0519
 1733POPC   D2A19356  15.361   9.475   4.318  0.1095  0.2517  0.0559
 1733POPC   C3A19357  15.476   9.494   4.739  0.0856  0.0187  0.1460
 1733POPC   C4A19358  15.225   9.635   5.177  0.1736 -0.1089  0.1487
 1733POPC   C1B19359  15.789   9.438   3.873 -0.0517 -0.0198 -0.0790
 1733POPC   C2B19360  15.889   9.393   4.248  0.2486 -0.1361 -0.2760
 1733POPC   C3B19361  15.944   9.207   4.674  0.1901  0.2595 -0.0011
 1733POPC   C4B19362  16.176   9.154   5.065  0.0955  0.0184 -0.2602
 1734POPC   NC319363  14.293   8.103   3.437 -0.1514  0.1213  0.1387
 1734POPC   PO419364  14.081   8.312   3.648  0.1239 -0.2692 -0.0069
 1734POPC   GL119365  14.125   8.423   4.078 -0.0205 -0.3744 -0.2871
 1734POPC   GL219366  13.856   8.194   4.057  0.2335 -0.1870  0.0357
 1734POPC   C1A19367  14.104   8.271   4.466  0.0991 -0.0548 -0.1402
 1734POPC   D2A19368  13.844   8.261   4.869 -0.2004 -0.3397 -0.1602
 1734POPC   C3A19369  13.876   8.001   5.283 -0.1745  0.1585  0.0147
 1734POPC   C4A19370  13.989   7.594   5.576  0.2042  0.0017 -0.0129
 1734POPC   C1B19371  13.783   7.940   4.287  0.2550 -0.0461  0.3422
 1734POPC   C2B19372  13.854   7.767   4.641 -0.2123  0.0817 -0.1423
 1734POPC   C3B19373  14.025   7.572   5.039  0.0761 -0.0406  0.0697
 1734POPC   C4B19374  13.956   7.176   5.336 -0.1565  0.1841 -0.0933
 1735POPC   NC319375  18.919   3.840   3.376 -0.0729  0.0807 -0.0635
 1735POPC   PO419376  18.968   3.452   3.354 -0.2490 -0.1798  0.2180
 1735POPC   GL119377  18.873   3.370   3.705  0.0180  0.0247  0.0656
 1735POPC   GL219378  18.593   3.351   3.766  0.1152  0.0217 -0.1328
 1735POPC   C1A19379  19.120   3.439   4.079 -0.2071 -0.2976 -0.1699
 1735POPC   D2A19380  19.479   3.643   4.353 -0.2175 -0.4301 -0.4217
 1735POPC   C3A19381  19.568   3.257   4.568  0.1464 -0.1641  0.1462
 1735POPC   C4A19382  19.777   2.928   4.821  0.1187  0.3876  0.0301
 1735POPC   C1B19383  18.523   3.446   4.164  0.0735  0.0128 -0.0957
 1735POPC   C2B19384  18.563   3.506   4.601  0.0451  0.0054 -0.3665
 1735POPC   C3B19385  18.806   3.783   4.947 -0.1803  0.0020  0.0443
 1735POPC   C4B19386  19.232   3.786   5.171 -0.1201 -0.3153 -0.2425
 1736POPC   NC319387   8.841   6.806   3.314 -0.0364  0.1800 -0.0787
 1736POPC   PO419388   8.596   6.467   3.321 -0.1108  0.4125 -0.0636
 1736POPC   GL119389   8.536   6.511   3.719 -0.0679 -0.2393 -0.0400
 1736POPC   GL219390   8.853   6.517   3.719  0.0310  0.2430 -0.3908
 1736POPC   C1A19391   8.457   6.349   4.123  0.0133  0.1923 -0.1514
 1736POPC   D2A19392   8.455   6.253   4.605  0.1061  0.2615 -0.1894
 1736POPC   C3A19393   8.310   6.156   5.079  0.1267  0.3880  0.4136
 1736POPC   C4A19394   8.286   6.059   5.603 -0.1720 -0.0065  0.2387
 1736POPC   C1B19395   8.839   6.635   4.070 -0.2010  0.0077  0.5346
 1736POPC   C2B19396   8.779   6.670   4.424 -0.0204 -0.1006 -0.1019
 1736POPC   C3B19397   8.732   6.547   4.919 -0.2095  0.2528  0.0099
 1736POPC   C4B19398   8.567   6.934   5.192  0.0223 -0.2380  0.2648
 1737POPC   NC319399  11.570   3.889   3.731 -0.0271 -0.1663  0.0896
 1737POPC   PO419400  11.825   3.686   3.560  0.2386 -0.0124  0.0653
 1737POPC   GL119401  11.998   3.565   3.960  0.0668  0.0599 -0.1642
 1737POPC   GL219402  11.889   3.840   4.047 -0.2014  0.2251 -0.2614
 1737POPC   C1A19403  12.258   3.608   4.301  0.0787 -0.0987  0.0114
 1737POPC   D2A19404  12.450   3.802   4.733 -0.0360  0.0403  0.0594
 1737POPC   C3A19405  12.321   3.875   5.202 -0.0413  0.0730  0.1344
 1737POPC   C4A19406  12.206   3.844   5.687 -0.0778  0.3544  0.2702
 1737POPC   C1B19407  11.942   3.913   4.397  0.3600  0.2161 -0.3598
 1737POPC   C2B19408  11.978   3.991   4.790  0.2422  0.2004 -0.0619
 1737POPC   C3B19409  11.888   4.252   5.219  0.0071 -0.1210 -0.1114
 1737POPC   C4B19410  11.897   4.731   5.440  0.0193 -0.2352  0.0605
 1738POPC   NC319411  16.686  15.432   3.495  0.2525 -0.1782  0.1422
 1738POPC   PO419412  17.026  15.249   3.583  0.0574 -0.0705  0.1892
 1738POPC   GL119413  17.354  15.079   3.773  0.5324 -0.1414  0.2173
 1738POPC   GL219414  17.511  15.343   3.797  0.2090 -0.1085  0.0915
 1738POPC   C1A19415  17.259  14.974   4.145 -0.0759  0.0499  0.0454
 1738POPC   D2A19416  17.385  14.930   4.638  0.0009 -0.0413  0.2781
 1738POPC   C3A19417  17.449  15.000   5.061 -0.1524 -0.0193 -0.0405
 1738POPC   C4A19418  17.525  14.844   5.584 -0.0712 -0.0888 -0.6335
 1738POPC   C1B19419  17.415  15.439   4.094 -0.2190  0.1867  0.0442
 1738POPC   C2B19420  17.223  15.367   4.491 -0.2513  0.0643 -0.2411
 1738POPC   C3B19421  16.918  15.206   4.843 -0.2449 -0.4291  0.2440
 1738POPC   C4B19422  17.037  15.182   5.305 -0.1968 -0.1297  0.0769
 1739POPC   NC319423   8.654  16.152   3.404  0.1110 -0.0376  0.1374
 1739POPC   PO419424   8.297  16.228   3.597  0.0175  0.3423  0.0981
 1739POPC   GL119425   8.219  16.150   4.044 -0.3503 -0.1045  0.4396
 1739POPC   GL219426   8.069  16.366   3.983  0.1756  0.0512  0.2660
 1739POPC   C1A19427   8.075  15.790   4.207  0.0398  0.3908  0.0547
 1739POPC   D2A19428   7.946  15.358   4.516  0.0489  0.1657 -0.1681
 1739POPC   C3A19429   7.851  15.338   5.036 -0.3479  0.3219  0.1197
 1739POPC   C4A19430   7.955  15.361   5.521  0.0699  0.2511  0.0824
 1739POPC   C1B19431   7.793  16.544   4.184 -0.0252 -0.0013  0.2629
 1739POPC   C2B19432   7.479  16.570   4.456 -0.1924 -0.1547  0.0560
 1739POPC   C3B19433   7.234  16.472   4.871  0.1342  0.2601  0.3285
 1739POPC   C4B19434   7.083  16.935   5.025 -0.0495 -0.0781 -0.1166
 1740POPC   NC319435  21.961  20.561   3.363  0.0592 -0.2571  0.1163
 1740POPC   PO419436  22.244  20.783   3.265 -0.0590  0.1008  0.2273
 1740POPC   GL119437  22.276  20.873   3.701 -0.1187 -0.1610  0.3574
 1740POPC   GL219438  22.352  20.524   3.713  0.5449  0.0324 -0.0203
 1740POPC   C1A19439  22.261  20.913   4.104  0.0351  0.1831 -0.1989
 1740POPC   D2A19440  22.248  20.871   4.610  0.0126 -0.2296  0.2407
 1740POPC   C3A19441  22.180  21.269   4.842 -0.3784 -0.1703 -0.2452
 1740POPC   C4A19442  22.133  21.609   5.102  0.4619  0.4588 -0.1792
 1740POPC   C1B19443  22.312  20.428   4.041  0.1205  0.0536 -0.1866
 1740POPC   C2B19444  22.096  20.421   4.381  0.1088 -0.1338  0.2287
 1740POPC   C3B19445  21.928  20.463   4.833  0.0846 -0.1554 -0.0768
 1740POPC   C4B19446  21.763  20.656   5.236  0.3567 -0.0295 -0.0218
 1741POPC   NC319447   4.575   1.913   3.595  0.0959 -0.1055 -0.0846
 1741POPC   PO419448   4.240   2.135   3.575  0.2507 -0.2841 -0.4276
 1741POPC   GL119449   4.394   2.383   3.856 -0.3772  0.1657  0.1442
 1741POPC   GL219450   4.590   2.206   3.986  0.0945  0.0608  0.1062
 1741POPC   C1A19451   4.443   2.683   4.156 -0.0038 -0.0475 -0.1240
 1741POPC   D2A19452   4.420   2.901   4.619 -0.0484 -0.1437 -0.1117
 1741POPC   C3A19453   4.557   3.046   5.025 -0.0220 -0.0196 -0.1859
 1741POPC   C4A19454   4.750   3.284   5.416 -0.4516  0.3430  0.1073
 1741POPC   C1B19455   4.602   2.253   4.320 -0.1229  0.1684 -0.1176
 1741POPC   C2B19456   4.575   2.336   4.680  0.1283  0.0518 -0.1740
 1741POPC   C3B19457   4.503   2.508   5.089  0.2565 -0.1794 -0.1806
 1741POPC   C4B19458   4.275   2.562   5.566  0.0288  0.0897  0.0607
 1742POPC   NC319459  18.645  18.821   3.460  0.1324  0.1349 -0.2072
 1742POPC   PO419460  18.492  19.021   3.751 -0.0259 -0.4927 -0.2934
 1742POPC   GL119461  18.686  18.961   4.033 -0.2845 -0.0693  0.4846
 1742POPC   GL219462  18.979  18.930   4.137  0.2883 -0.0444  0.0409
 1742POPC   C1A19463  18.350  18.778   4.306 -0.3601 -0.4352 -0.2238
 1742POPC   D2A19464  18.195  18.981   4.714  0.1028 -0.0914  0.1018
 1742POPC   C3A19465  18.198  18.728   5.149 -0.0463 -0.0218  0.1465
 1742POPC   C4A19466  18.018  18.492   5.487  0.0394 -0.2715  0.0566
 1742POPC   C1B19467  18.975  18.948   4.491 -0.0937  0.0499  0.1074
 1742POPC   C2B19468  18.935  18.783   4.884  0.3706 -0.0814 -0.1341
 1742POPC   C3B19469  18.794  18.593   5.314  0.0061  0.0991  0.2433
 1742POPC   C4B19470  18.922  18.455   5.693 -0.1579 -0.1581  0.1024
 1743POPC   NC319471  21.863   2.672   3.586 -0.1810 -0.1655 -0.2113
 1743POPC   PO419472  22.211   2.897   3.756 -0.0288 -0.1972  0.2551
 1743POPC   GL119473  22.410   2.527   3.967  0.1463 -0.0060 -0.1660
 1743POPC   GL219474  22.064   2.583   4.048  0.1441  0.2392 -0.1522
 1743POPC   C1A19475  22.504   2.564   4.396 -0.0674  0.1849  0.0560
 1743POPC   D2A19476  22.518   2.262   4.798  0.0481  0.0162  0.2001
 1743POPC   C3A19477  22.836   2.209   5.107  0.0720 -0.0512  0.0676
 1743POPC   C4A19478  23.090   2.149   5.523  0.2773 -0.0583 -0.0764
 1743POPC   C1B19479  22.026   2.614   4.388  0.1098  0.0540 -0.2726
 1743POPC   C2B19480  22.140   2.651   4.788  0.2414  0.2516 -0.1155
 1743POPC   C3B19481  22.266   2.552   5.240  0.4953  0.5105  0.0006
 1743POPC   C4B19482  22.620   2.416   5.518 -0.0686  0.1656  0.0351
 1744POPC   NC319483  11.210  24.997   3.624 -0.0131 -0.2159 -0.1209
 1744POPC   PO419484  11.049  25.310   3.779 -0.1367 -0.0523 -0.1876
 1744POPC   GL119485  11.184  25.269   4.177  0.2203  0.1435  0.0394
 1744POPC   GL219486  11.317  25.570   4.231 -0.0159  0.1943  0.3146
 1744POPC   C1A19487  10.904  25.105   4.488  0.1190  0.0953  0.0381
 1744POPC   D2A19488  10.854  24.897   4.934 -0.1579 -0.0771  0.1105
 1744POPC   C3A19489  10.833  24.767   5.356 -0.2537 -0.2150 -0.4422
 1744POPC   C4A19490  10.429  24.860   5.633  0.1148  0.3177  0.1935
 1744POPC   C1B19491  11.260  25.405   4.547  0.3581 -0.1347 -0.0775
 1744POPC   C2B19492  11.131  25.541   4.899 -0.0529  0.0820  0.2104
 1744POPC   C3B19493  10.682  25.682   5.181 -0.1773  0.2026 -0.1917
 1744POPC   C4B19494  10.377  25.898   5.554 -0.0920  0.1576 -0.0245
 1745POPC   NC319495  16.851  23.177   3.606 -0.1380  0.1128 -0.0309
 1745POPC   PO419496  16.847  22.759   3.715 -0.2673 -0.0027 -0.0836
 1745POPC   GL119497  16.838  22.696   4.171 -0.1014  0.0564  0.3593
 1745POPC   GL219498  16.896  22.950   4.258  0.1398 -0.2794  0.0839
 1745POPC   C1A19499  16.652  22.444   4.511  0.1049  0.2210  0.1547
 1745POPC   D2A19500  16.637  22.498   4.963 -0.2478 -0.3023 -0.0066
 1745POPC   C3A19501  16.983  22.701   4.834 -0.0343 -0.1611 -0.2494
 1745POPC   C4A19502  17.234  22.860   5.218 -0.0253 -0.3148  0.0419
 1745POPC   C1B19503  16.865  23.119   4.585 -0.2884 -0.0242 -0.0384
 1745POPC   C2B19504  16.947  23.188   4.996  0.0033  0.0425  0.1591
 1745POPC   C3B19505  17.106  23.396   5.414  0.0351  0.1593  0.1280
 1745POPC   C4B19506  17.143  23.808   5.613  0.2834  0.0386  0.2457
 1746POPC   NC319507   7.340  21.029   3.295  0.2139  0.0496 -0.1223
 1746POPC   PO419508   7.538  21.289   3.539  0.3667  0.2716 -0.1646
 1746POPC   GL119509   7.413  21.164   3.979  0.1733  0.1592  0.1768
 1746POPC   GL219510   7.677  21.358   3.983 -0.0090 -0.0577  0.0112
 1746POPC   C1A19511   7.642  21.126   4.387 -0.2186  0.0805 -0.1132
 1746POPC   D2A19512   7.702  21.039   4.865  0.2477 -0.0194  0.1852
 1746POPC   C3A19513   7.279  21.285   4.964 -0.0302  0.1559  0.5013
 1746POPC   C4A19514   6.969  21.585   4.847  0.0331 -0.2184 -0.3732
 1746POPC   C1B19515   7.574  21.607   4.306  0.2264  0.0513  0.1900
 1746POPC   C2B19516   7.639  21.516   4.720 -0.1007 -0.0730 -0.0997
 1746POPC   C3B19517   7.638  21.497   5.231 -0.1462  0.1902 -0.1679
 1746POPC   C4B19518   7.422  21.322   5.625 -0.0592  0.1547  0.3992
 1747POPC   NC319519   2.864   4.206   3.937 -0.0265 -0.4769 -0.0715
 1747POPC   PO419520   2.503   4.431   4.009  0.1027 -0.2002  0.0964
 1747POPC   GL119521   2.263   4.289   4.249  0.0534  0.1184 -0.1339
 1747POPC   GL219522   2.210   4.565   4.281 -0.0613 -0.2590 -0.2681
 1747POPC   C1A19523   1.806   4.246   4.300  0.1386 -0.1571 -0.3610
 1747POPC   D2A19524   1.527   4.162   4.737  0.1004  0.0279 -0.1390
 1747POPC   C3A19525   1.476   4.041   5.159  0.5392 -0.0274 -0.1499
 1747POPC   C4A19526   1.521   4.054   5.666  0.2028  0.0280  0.0086
 1747POPC   C1B19527   2.019   4.663   4.543 -0.1008 -0.3226  0.0633
 1747POPC   C2B19528   1.705   4.681   4.856 -0.4592 -0.1267 -0.1474
 1747POPC   C3B19529   1.621   4.580   5.314  0.0334 -0.4999 -0.1180
 1747POPC   C4B19530   1.235   4.634   5.665 -0.2688 -0.0424  0.0634
 1748POPC   NC319531  23.149   3.515   3.158  0.2455  0.0602  0.0609
 1748POPC   PO419532  23.190   3.831   3.438 -0.0510  0.1594  0.0211
 1748POPC   GL119533  23.204   3.590   3.812 -0.0067  0.2125  0.0133
 1748POPC   GL219534  23.053   3.816   3.897 -0.1564  0.0001 -0.0433
 1748POPC   C1A19535  23.410   3.668   4.217  0.2711  0.0376  0.3737
 1748POPC   D2A19536  23.187   3.626   4.691  0.0779  0.1019  0.3352
 1748POPC   C3A19537  23.145   3.526   5.122  0.3100 -0.1794 -0.0729
 1748POPC   C4A19538  23.311   3.494   5.579  0.3381 -0.0503  0.2076
 1748POPC   C1B19539  22.882   3.820   4.187  0.0412  0.0079  0.2904
 1748POPC   C2B19540  22.737   3.765   4.554  0.1189  0.1162 -0.2951
 1748POPC   C3B19541  22.691   3.806   5.090 -0.1187  0.1602  0.3221
 1748POPC   C4B19542  22.826   3.709   5.592 -0.3187 -0.2270  0.0930
 1749POPC   NC319543  24.054  11.435   4.233  0.2190 -0.2394  0.0658
 1749POPC   PO419544  24.134  11.804   4.166  0.2668  0.1542 -0.2548
 1749POPC   GL119545  24.043  11.879   4.607  0.0445  0.2236  0.3064
 1749POPC   GL219546  24.127  11.627   4.731  0.0894 -0.0794 -0.1121
 1749POPC   C1A19547  24.025  12.273   4.661  0.1203 -0.2505 -0.0240
 1749POPC   D2A19548  24.228  12.668   4.513 -0.0818 -0.1294  0.3251
 1749POPC   C3A19549  24.683  12.570   4.583 -0.0929  0.0531 -0.2052
 1749POPC   C4A19550  24.940  12.680   4.980 -0.0185  0.0454  0.1191
 1749POPC   C1B19551  24.392  11.631   5.007 -0.0669  0.1888  0.3597
 1749POPC   C2B19552  24.579  11.909   5.268  0.0391 -0.2960 -0.1080
 1749POPC   C3B19553  24.595  12.041   5.745  0.0811  0.0229  0.1049
 1749POPC   C4B19554  24.700  12.100   6.245  0.0788 -0.0300 -0.2284
 1750POPC   NC319555  16.554  10.344   3.494  0.0517  0.1980  0.0711
 1750POPC   PO419556  16.758  10.129   3.287  0.4158  0.1445  0.2168
 1750POPC   GL119557  16.913  10.040   3.632  0.8389 -0.4742  0.6127
 1750POPC   GL219558  16.779   9.726   3.624  0.3434  0.0493 -0.1580
 1750POPC   C1A19559  17.043  10.149   4.018 -0.3080 -0.4266 -0.1520
 1750POPC   D2A19560  17.489  10.096   4.305  0.1600 -0.0844  0.2216
 1750POPC   C3A19561  17.584   9.876   4.699 -0.0074 -0.1181  0.0829
 1750POPC   C4A19562  17.819   9.740   5.083  0.4237  0.2396 -0.2646
 1750POPC   C1B19563  16.620   9.593   3.920 -0.0370 -0.0808  0.0623
 1750POPC   C2B19564  16.600   9.398   4.289 -0.1115 -0.2799 -0.1606
 1750POPC   C3B19565  16.369   9.470   4.686 -0.2246 -0.0666  0.1195
 1750POPC   C4B19566  16.270   9.606   5.145 -0.3725  0.0522 -0.3959
 1751POPC   NC319567   4.966  20.945   3.883  0.0912  0.0299 -0.0911
 1751POPC   PO419568   4.842  21.352   3.768  0.5502  0.0494  0.2903
 1751POPC   GL119569   4.722  21.507   4.109  0.2319 -0.0340  0.0355
 1751POPC   GL219570   4.730  21.257   4.296  0.0902  0.0128  0.4817
 1751POPC   C1A19571   4.834  21.910   4.318 -0.1164  0.2957  0.1784
 1751POPC   D2A19572   5.195  22.137   4.634  0.0952  0.2299  0.0161
 1751POPC   C3A19573   5.134  21.927   5.029  0.1281 -0.2092 -0.0974
 1751POPC   C4A19574   5.203  21.668   5.430 -0.0953  0.0764 -0.0288
 1751POPC   C1B19575   4.781  21.177   4.632  0.0853  0.2489 -0.1050
 1751POPC   C2B19576   4.615  21.179   4.966  0.1057  0.0681 -0.0490
 1751POPC   C3B19577   4.369  21.399   5.322 -0.1830  0.1351 -0.4009
 1751POPC   C4B19578   4.029  21.491   5.722 -0.0579  0.1479 -0.0619
 1752POPC   NC319579   0.938  13.305   3.777 -0.3135  0.4462  0.1395
 1752POPC   PO419580   1.317  13.234   3.636  0.1526  0.0043  0.0789
 1752POPC   GL119581   1.375  13.231   4.056  0.1016 -0.0509  0.3675
 1752POPC   GL219582   1.491  12.923   4.034 -0.2493  0.1527  0.2574
 1752POPC   C1A19583   1.178  13.306   4.459  0.3764  0.0522 -0.2402
 1752POPC   D2A19584   1.175  13.335   4.990  0.1790  0.1200  0.1637
 1752POPC   C3A19585   1.083  13.729   5.169  0.1091  0.0005  0.0839
 1752POPC   C4A19586   0.756  14.013   5.315  0.0662 -0.5003  0.3920
 1752POPC   C1B19587   1.558  12.879   4.370  0.0466  0.3450  0.4050
 1752POPC   C2B19588   1.701  12.747   4.658 -0.1438  0.4036  0.0173
 1752POPC   C3B19589   1.852  12.573   5.113 -0.0525  0.1910 -0.3143
 1752POPC   C4B19590   1.879  12.725   5.560  0.0112 -0.2650 -0.1369
 1753POPC   NC319591   8.469  14.970   2.921  0.1905 -0.1942  0.1512
 1753POPC   PO419592   8.222  15.080   3.155 -0.4117 -0.3526 -0.0527
 1753POPC   GL119593   8.156  14.857   3.533  0.0116  0.1823  0.2768
 1753POPC   GL219594   8.368  14.909   3.624 -0.0778 -0.1639  0.4057
 1753POPC   C1A19595   7.991  14.985   3.899  0.1355  0.0193 -0.6041
 1753POPC   D2A19596   7.642  15.132   4.238 -0.2290  0.0219  0.0737
 1753POPC   C3A19597   7.745  14.958   4.669  0.2522 -0.0683  0.0785
 1753POPC   C4A19598   7.582  14.952   5.163 -0.4077 -0.0728 -0.2025
 1753POPC   C1B19599   8.426  14.793   3.972 -0.0187 -0.0031 -0.1867
 1753POPC   C2B19600   8.403  14.571   4.346 -0.0097 -0.0091 -0.2057
 1753POPC   C3B19601   8.390  14.412   4.806 -0.0090  0.2500 -0.2472
 1753POPC   C4B19602   8.576  14.320   5.290  0.0457  0.0535  0.2653
 1754POPC   NC319603  22.177  12.229   3.573  0.1466  0.0370 -0.1434
 1754POPC   PO419604  22.008  12.562   3.727 -0.1315 -0.0754  0.0021
 1754POPC   GL119605  22.188  12.463   4.173  0.0729  0.0523  0.1884
 1754POPC   GL219606  21.961  12.281   4.146  0.1920 -0.0712 -0.1942
 1754POPC   C1A19607  22.178  12.789   4.504 -0.0603  0.3582  0.0935
 1754POPC   D2A19608  21.964  12.857   5.016 -0.1047  0.0813  0.2761
 1754POPC   C3A19609  21.540  12.719   5.261  0.0552 -0.3352 -0.1112
 1754POPC   C4A19610  21.575  12.597   5.732  0.3320  0.1070  0.1057
 1754POPC   C1B19611  21.911  12.307   4.490 -0.0778  0.1161 -0.3582
 1754POPC   C2B19612  21.885  12.386   4.888  0.4479 -0.1634 -0.2230
 1754POPC   C3B19613  21.953  12.459   5.386  0.2835  0.0296 -0.2744
 1754POPC   C4B19614  21.964  12.242   5.853 -0.1762 -0.0637 -0.3721
 1755POPC   NC319615  12.779  15.534   3.051 -0.1641 -0.0738 -0.2812
 1755POPC   PO419616  12.894  15.414   3.420 -0.1765  0.3113 -0.0549
 1755POPC   GL119617  13.173  15.628   3.737 -0.1133 -0.0799 -0.0523
 1755POPC   GL219618  13.014  15.829   3.522 -0.4291  0.0893  0.0255
 1755POPC   C1A19619  12.879  15.644   4.125  0.0086  0.0768 -0.1753
 1755POPC   D2A19620  12.758  15.655   4.612  0.2921  0.0636  0.2678
 1755POPC   C3A19621  12.525  15.636   4.998  0.1825 -0.1474 -0.0006
 1755POPC   C4A19622  12.040  15.686   4.978  0.3173  0.1054 -0.1133
 1755POPC   C1B19623  12.908  16.084   3.757  0.0000 -0.0131  0.2501
 1755POPC   C2B19624  12.915  16.181   4.177 -0.1024 -0.0249 -0.4168
 1755POPC   C3B19625  12.740  16.225   4.691 -0.4224  0.0517  0.3243
 1755POPC   C4B19626  12.742  16.192   5.170  0.0540 -0.3283 -0.1476
 1756POPC   NC319627  14.919  16.452   3.226  0.1097 -0.3575 -0.0177
 1756POPC   PO419628  14.985  16.084   3.337 -0.1717 -0.3038  0.0023
 1756POPC   GL119629  15.002  16.057   3.725  0.1478  0.0069 -0.2586
 1756POPC   GL219630  15.016  16.282   3.800 -0.0098  0.0411  0.0522
 1756POPC   C1A19631  15.015  15.839   4.109  0.1448 -0.3590 -0.3177
 1756POPC   D2A19632  15.155  15.799   4.595 -0.1104  0.2216  0.0860
 1756POPC   C3A19633  14.822  15.869   4.902  0.1998 -0.0140 -0.1478
 1756POPC   C4A19634  14.709  15.686   5.350 -0.3934 -0.1931  0.1205
 1756POPC   C1B19635  15.052  16.330   4.197  0.0244  0.3573  0.2637
 1756POPC   C2B19636  15.115  16.467   4.564 -0.1239 -0.1089  0.1703
 1756POPC   C3B19637  15.025  16.335   5.041 -0.2253 -0.1605  0.1187
 1756POPC   C4B19638  15.052  16.133   5.498  0.0406  0.1321 -0.2049
 1757POPC   NC319639   0.395  18.026   4.350  0.2760  0.1570 -0.2365
 1757POPC   PO419640   0.106  17.841   4.165 -0.0197 -0.1212  0.4558
 1757POPC   GL119641  -0.002  17.718   4.555  0.0055 -0.0651  0.2371
 1757POPC   GL219642   0.203  17.834   4.733  0.3283 -0.0579 -0.0108
 1757POPC   C1A19643  -0.270  17.427   4.739 -0.1134  0.2856 -0.1781
 1757POPC   D2A19644  -0.594  17.107   5.028  0.1372 -0.1191 -0.0709
 1757POPC   C3A19645  -0.735  17.097   5.443 -0.1046 -0.0132  0.2521
 1757POPC   C4A19646  -0.684  17.110   5.919 -0.2288  0.1202 -0.2771
 1757POPC   C1B19647   0.174  17.965   5.063  0.0566  0.0266 -0.0279
 1757POPC   C2B19648   0.171  17.799   5.443 -0.2718 -0.2653 -0.1281
 1757POPC   C3B19649   0.168  17.590   5.894  0.1039 -0.0694 -0.4921
 1757POPC   C4B19650   0.294  17.545   6.359  0.0807  0.2893  0.0019
 1758POPC   NC319651  27.407   7.650   3.621  0.0432  0.0014 -0.2132
 1758POPC   PO419652  27.040   7.836   3.643 -0.1636  0.1203 -0.0590
 1758POPC   GL119653  27.009   7.753   4.048  0.3004 -0.5022 -0.0584
 1758POPC   GL219654  27.364   7.883   4.007  0.2640  0.2761  0.1718
 1758POPC   C1A19655  26.952   7.913   4.474 -0.3581 -0.0032 -0.3398
 1758POPC   D2A19656  26.835   7.923   4.988 -0.1617  0.0357  0.2494
 1758POPC   C3A19657  26.648   8.055   5.388  0.0217  0.1497 -0.0218
 1758POPC   C4A19658  26.276   8.346   5.446  0.2134  0.1456 -0.1079
 1758POPC   C1B19659  27.434   7.984   4.357 -0.1636  0.0455 -0.0571
 1758POPC   C2B19660  27.355   7.866   4.741 -0.0803  0.0366  0.2091
 1758POPC   C3B19661  27.290   7.969   5.205 -0.2170 -0.2114  0.0530
 1758POPC   C4B19662  27.154   8.191   5.567 -0.1279  0.0975  0.2185
 1759POPC   NC319663   9.249  23.647   3.581  0.2481  0.1185  0.1755
 1759POPC   PO419664   9.261  23.940   3.849  0.1471 -0.1693  0.0213
 1759POPC   GL119665   9.518  23.908   4.149 -0.4794  0.2273 -0.2836
 1759POPC   GL219666   9.687  24.154   4.008 -0.0501  0.1443  0.2648
 1759POPC   C1A19667   9.565  24.017   4.620 -0.1605  0.1172 -0.0983
 1759POPC   D2A19668   9.702  24.355   5.084 -0.1659  0.1891  0.1460
 1759POPC   C3A19669   9.541  24.400   5.533 -0.2566  0.0582  0.1950
 1759POPC   C4A19670   9.569  24.439   6.003 -0.0462  0.0568  0.0724
 1759POPC   C1B19671   9.832  24.250   4.299  0.0490 -0.4595 -0.3388
 1759POPC   C2B19672   9.900  24.507   4.628  0.1150  0.1980  0.0519
 1759POPC   C3B19673  10.148  24.457   4.969  0.3908 -0.0846 -0.4604
 1759POPC   C4B19674  10.015  24.711   5.420  0.2807 -0.1689  0.2759
 1760POPC   NC319675  25.031   3.453   3.567 -0.1097 -0.0805 -0.0928
 1760POPC   PO419676  25.299   3.302   3.824  0.1991  0.0411 -0.0551
 1760POPC   GL119677  25.261   3.436   4.168  0.1181 -0.0982 -0.0253
 1760POPC   GL219678  25.447   3.411   4.355 -0.0188 -0.0297  0.0201
 1760POPC   C1A19679  24.916   3.292   4.383 -0.3101  0.4795 -0.1722
 1760POPC   D2A19680  24.556   2.931   4.328  0.2632 -0.1937 -0.0747
 1760POPC   C3A19681  24.409   2.446   4.545 -0.1489  0.0031 -0.4871
 1760POPC   C4A19682  24.385   2.400   5.023  0.0208 -0.1309  0.2171
 1760POPC   C1B19683  25.358   3.514   4.684 -0.4844  0.0574 -0.3855
 1760POPC   C2B19684  25.241   3.200   4.955 -0.0065 -0.0516  0.4116
 1760POPC   C3B19685  25.467   3.005   5.377  0.1374  0.2421  0.2528
 1760POPC   C4B19686  25.629   2.673   5.600  0.2564 -0.1574  0.0970
 1761POPC   NC319687  11.345  10.587   3.641  0.0461 -0.2977  0.0174
 1761POPC   PO419688  11.151  10.797   3.374 -0.5555 -0.3080  0.2862
 1761POPC   GL119689  10.937  10.868   3.715  0.2165  0.1052 -0.0675
 1761POPC   GL219690  11.017  10.773   3.931 -0.3154  0.2905 -0.0644
 1761POPC   C1A19691  10.802  11.152   4.121  0.2181  0.1202  0.3183
 1761POPC   D2A19692  10.948  11.347   4.548  0.1072  0.1171 -0.1357
 1761POPC   C3A19693  11.162  11.415   4.959 -0.0861  0.0204 -0.0754
 1761POPC   C4A19694  11.494  11.425   5.360  0.0585 -0.0361 -0.2703
 1761POPC   C1B19695  10.910  10.742   4.277  0.2848  0.1011 -0.3403
 1761POPC   C2B19696  10.999  10.858   4.688 -0.0925  0.0572  0.3023
 1761POPC   C3B19697  11.052  10.976   5.103 -0.1828 -0.1304 -0.0869
 1761POPC   C4B19698  10.986  11.224   5.527  0.1342  0.1438 -0.1028
 1762POPC   NC319699  15.616   4.694   3.985 -0.2195  0.2786 -0.1659
 1762POPC   PO419700  15.618   5.009   3.775  0.1714 -0.3167  0.1189
 1762POPC   GL119701  15.518   5.208   4.206 -0.0754 -0.3981 -0.0574
 1762POPC   GL219702  15.684   5.010   4.264  0.0453 -0.2874  0.2456
 1762POPC   C1A19703  15.355   5.264   4.545 -0.2659 -0.0305 -0.1293
 1762POPC   D2A19704  15.216   5.303   5.062 -0.2040  0.1660 -0.2823
 1762POPC   C3A19705  15.287   5.473   5.477 -0.1141  0.0865  0.2864
 1762POPC   C4A19706  15.713   5.743   5.485 -0.2744  0.0663 -0.1914
 1762POPC   C1B19707  15.726   4.990   4.612 -0.0505  0.2236 -0.0201
 1762POPC   C2B19708  15.593   4.997   5.029  0.2096 -0.0697  0.0810
 1762POPC   C3B19709  15.300   4.781   5.279  0.0731  0.3611  0.2643
 1762POPC   C4B19710  15.030   4.373   5.301 -0.0477  0.1792  0.3127
 1763POPC   NC319711  15.533  12.244   3.403 -0.0647 -0.0601  0.1867
 1763POPC   PO419712  15.924  12.355   3.223 -0.0795  0.1078 -0.1699
 1763POPC   GL119713  16.020  12.162   3.652  0.0476  0.2523 -0.0191
 1763POPC   GL219714  16.059  12.432   3.721  0.3344 -0.2334 -0.0345
 1763POPC   C1A19715  16.343  11.924   3.921  0.2134 -0.0600  0.0126
 1763POPC   D2A19716  16.210  11.954   4.460 -0.1239 -0.3138 -0.0083
 1763POPC   C3A19717  16.200  12.039   4.891  0.0621  0.0243 -0.1671
 1763POPC   C4A19718  16.365  12.287   5.267  0.1400 -0.0070 -0.3602
 1763POPC   C1B19719  16.056  12.377   4.068 -0.0927  0.1235  0.0543
 1763POPC   C2B19720  15.917  12.434   4.458 -0.0989 -0.2214  0.0223
 1763POPC   C3B19721  15.704  12.731   4.847  0.0791  0.0189  0.0956
 1763POPC   C4B19722  15.664  13.104   5.241  0.5601 -0.3506 -0.4382
 1764POPC   NC319723  19.158   9.205   3.403  0.1307  0.3932 -0.1638
 1764POPC   PO419724  18.743   9.274   3.406  0.0499  0.4359  0.2024
 1764POPC   GL119725  18.883   9.258   3.835 -0.1004  0.1332 -0.0726
 1764POPC   GL219726  18.657   9.348   3.865  0.3260  0.1800  0.0041
 1764POPC   C1A19727  19.104   9.408   4.235 -0.0280  0.1473 -0.1543
 1764POPC   D2A19728  19.048   9.770   4.495 -0.0177 -0.2278  0.1803
 1764POPC   C3A19729  18.962   9.735   4.948  0.0152 -0.5154 -0.1884
 1764POPC   C4A19730  18.864  10.135   5.268 -0.0185 -0.0628  0.1522
 1764POPC   C1B19731  18.572   9.478   4.194  0.4666 -0.1475 -0.3099
 1764POPC   C2B19732  18.606   9.504   4.617  0.1322  0.2495  0.0966
 1764POPC   C3B19733  18.562   9.433   5.077  0.3209  0.0873  0.2898
 1764POPC   C4B19734  18.478   9.166   5.461 -0.0169  0.0375  0.1520
 1765POPC   NC319735   4.346  21.588   3.721  0.0363  0.2074 -0.1709
 1765POPC   PO419736   4.188  21.499   4.070 -0.1653  0.0982  0.2501
 1765POPC   GL119737   4.324  21.713   4.425  0.2400 -0.4110  0.1608
 1765POPC   GL219738   4.092  21.632   4.595  0.2223  0.1240  0.0863
 1765POPC   C1A19739   4.382  22.109   4.622  0.0382 -0.3113  0.0830
 1765POPC   D2A19740   4.791  22.224   4.893 -0.1476  0.0734 -0.2751
 1765POPC   C3A19741   4.751  21.987   5.329  0.3990  0.0366  0.0971
 1765POPC   C4A19742   4.860  21.815   5.794  0.1644  0.0295  0.2978
 1765POPC   C1B19743   3.930  21.634   4.911  0.2967 -0.2995 -0.0087
 1765POPC   C2B19744   3.813  21.763   5.333  0.0934  0.0502  0.0044
 1765POPC   C3B19745   3.721  22.017   5.804 -0.3152  0.2574 -0.2712
 1765POPC   C4B19746   3.490  22.186   6.215 -0.0213  0.1855  0.2286
 1766POPC   NC319747  16.780   5.928   3.484  0.2153  0.1521 -0.0575
 1766POPC   PO419748  16.910   5.571   3.362  0.0900 -0.0770 -0.3705
 1766POPC   GL119749  17.008   5.503   3.749 -0.3755  0.2978  0.0864
 1766POPC   GL219750  17.012   5.251   3.769  0.0727 -0.1923  0.3512
 1766POPC   C1A19751  16.912   5.840   3.960 -0.1522 -0.0644  0.0258
 1766POPC   D2A19752  16.710   6.178   4.302 -0.3184 -0.1884  0.1717
 1766POPC   C3A19753  16.302   6.225   4.520  0.3837 -0.1137 -0.0949
 1766POPC   C4A19754  15.888   6.444   4.769  0.0590  0.0693 -0.0546
 1766POPC   C1B19755  17.063   5.420   4.132 -0.0893 -0.0827  0.2867
 1766POPC   C2B19756  16.961   5.626   4.448 -0.0382 -0.1437 -0.0849
 1766POPC   C3B19757  16.887   5.839   4.895  0.4080 -0.2426  0.2609
 1766POPC   C4B19758  16.914   5.983   5.365  0.2318  0.1585  0.5285
 1767POPC   NC319759  23.075  11.899   3.192  0.1775 -0.1306  0.1307
 1767POPC   PO419760  22.833  12.166   3.406  0.0004  0.2576  0.2358
 1767POPC   GL119761  22.720  12.149   3.722 -0.3193  0.2254  0.2798
 1767POPC   GL219762  22.881  12.126   3.959  0.0223  0.1190 -0.1676
 1767POPC   C1A19763  22.446  11.964   3.966  0.0272  0.1236 -0.4194
 1767POPC   D2A19764  22.141  11.843   4.363 -0.2863  0.0151  0.3227
 1767POPC   C3A19765  22.243  11.598   4.764 -0.2932  0.3931  0.3706
 1767POPC   C4A19766  22.480  11.313   5.064  0.0426 -0.1044 -0.0200
 1767POPC   C1B19767  22.828  12.403   4.249 -0.2406  0.1306 -0.0091
 1767POPC   C2B19768  22.701  12.766   4.426 -0.0125  0.1835 -0.1791
 1767POPC   C3B19769  22.560  13.136   4.671  0.1942  0.2081  0.0591
 1767POPC   C4B19770  22.567  13.605   4.877  0.1429 -0.2521  0.0070
 1768POPC   NC319771  12.031   8.542   3.901  0.0322 -0.2144 -0.4623
 1768POPC   PO419772  12.043   8.930   3.783  0.0273  0.3836  0.2226
 1768POPC   GL119773  11.912   9.128   4.135 -0.0960  0.2040 -0.1272
 1768POPC   GL219774  11.978   9.426   4.119 -0.1382 -0.1784 -0.2207
 1768POPC   C1A19775  11.950   8.995   4.537  0.1179  0.2499 -0.2238
 1768POPC   D2A19776  12.032   8.893   4.951 -0.0380 -0.0423 -0.4080
 1768POPC   C3A19777  12.095   8.657   5.356  0.1922  0.0993  0.0374
 1768POPC   C4A19778  12.080   8.422   5.730 -0.0351 -0.0023  0.4982
 1768POPC   C1B19779  12.103   9.572   4.457 -0.1120 -0.3575  0.1831
 1768POPC   C2B19780  12.177   9.624   4.850  0.1593  0.1383 -0.1076
 1768POPC   C3B19781  11.888   9.680   5.265 -0.0676  0.1883  0.0767
 1768POPC   C4B19782  11.538   9.567   5.601 -0.3783 -0.0274  0.1737
 1769POPC   NC319783  14.758  26.310   3.691 -0.3125 -0.0956 -0.0716
 1769POPC   PO419784  14.899  26.581   4.008 -0.1556 -0.2330 -0.0287
 1769POPC   GL119785  14.940  26.420   4.362 -0.0459  0.0396  0.2892
 1769POPC   GL219786  14.772  26.619   4.558  0.0738 -0.1186 -0.5679
 1769POPC   C1A19787  15.172  26.376   4.671  0.2829  0.0145  0.0215
 1769POPC   D2A19788  15.319  26.432   5.124 -0.3331 -0.1542  0.2639
 1769POPC   C3A19789  15.380  26.487   5.599 -0.2202  0.4387 -0.2790
 1769POPC   C4A19790  15.856  26.654   5.609 -0.1489  0.0207 -0.1975
 1769POPC   C1B19791  14.766  26.478   4.919  0.1443  0.3553 -0.2833
 1769POPC   C2B19792  14.843  26.347   5.320  0.1042  0.1083 -0.3135
 1769POPC   C3B19793  14.920  26.397   5.837  0.0568 -0.1434 -0.1682
 1769POPC   C4B19794  14.962  26.507   6.351 -0.1493 -0.1330 -0.1283
 1770POPC   NC319795   7.322  15.937   3.228 -0.0459  0.3626 -0.0086
 1770POPC   PO419796   7.451  16.063   3.543  0.1691  0.0541  0.1026
 1770POPC   GL119797   7.383  15.877   3.906  0.3584  0.0505  0.3062
 1770POPC   GL219798   7.374  15.643   3.865  0.1305 -0.0464 -0.1201
 1770POPC   C1A19799   7.644  16.061   4.304  0.2432  0.0882 -0.1163
 1770POPC   D2A19800   7.496  15.949   4.715  0.3381 -0.1434 -0.0013
 1770POPC   C3A19801   7.809  15.902   5.008 -0.2754 -0.1846  0.0182
 1770POPC   C4A19802   8.254  15.867   5.208 -0.0185  0.0730  0.1169
 1770POPC   C1B19803   7.275  15.343   4.086  0.3746  0.1086 -0.0918
 1770POPC   C2B19804   7.192  15.014   4.366 -0.2949  0.2413 -0.1164
 1770POPC   C3B19805   7.350  14.648   4.656  0.1360  0.2130  0.3454
 1770POPC   C4B19806   7.494  14.451   5.023 -0.0710 -0.2641  0.0522
 1771POPC   NC319807  11.645  16.705   3.365 -0.4166 -0.0661  0.3577
 1771POPC   PO419808  11.740  16.946   3.686  0.2209  0.0036  0.0119
 1771POPC   GL119809  11.616  16.954   4.207  0.1039  0.3791  0.6101
 1771POPC   GL219810  11.741  17.205   4.112 -0.0848 -0.2194  0.4568
 1771POPC   C1A19811  11.318  17.057   4.527 -0.2938 -0.1887 -0.0900
 1771POPC   D2A19812  11.316  17.293   4.967  0.2863 -0.0010  0.0781
 1771POPC   C3A19813  11.136  16.985   5.229 -0.0675 -0.2916  0.1427
 1771POPC   C4A19814  11.076  16.532   5.412  0.1237 -0.0381 -0.2346
 1771POPC   C1B19815  11.482  17.473   4.288  0.0222  0.0887  0.2839
 1771POPC   C2B19816  11.352  17.690   4.587 -0.0848 -0.1914 -0.1076
 1771POPC   C3B19817  11.347  17.813   5.046  0.1659  0.1736  0.1510
 1771POPC   C4B19818  11.579  18.209   5.246 -0.0410 -0.1286 -0.1700
 1772POPC   NC319819  21.947   5.789   3.565 -0.2564  0.2380 -0.0808
 1772POPC   PO419820  21.568   5.851   3.453  0.2640 -0.1176 -0.0126
 1772POPC   GL119821  21.303   5.655   3.752 -0.2813  0.3468 -0.1635
 1772POPC   GL219822  21.555   5.577   3.846  0.0596  0.3618 -0.3824
 1772POPC   C1A19823  21.091   5.785   4.081 -0.0709 -0.2843  0.0423
 1772POPC   D2A19824  20.837   6.031   4.372  0.1612 -0.0952 -0.2336
 1772POPC   C3A19825  20.641   5.973   4.736  0.2650 -0.0832  0.3472
 1772POPC   C4A19826  20.555   5.968   5.296 -0.2372 -0.0216  0.1106
 1772POPC   C1B19827  21.419   5.456   4.188  0.0938  0.0486 -0.1964
 1772POPC   C2B19828  21.322   5.307   4.536 -0.3781  0.2578  0.1802
 1772POPC   C3B19829  21.439   5.271   4.974 -0.0833 -0.3061  0.0727
 1772POPC   C4B19830  21.507   5.609   5.326  0.0119  0.0481 -0.1435
 1773POPC   NC319831  15.922  11.070   3.134 -0.3055  0.2066  0.0005
 1773POPC   PO419832  15.864  10.683   3.211  0.2136  0.1175 -0.2287
 1773POPC   GL119833  15.919  10.577   3.661 -0.0275 -0.1888  0.1088
 1773POPC   GL219834  16.133  10.441   3.699 -0.1892 -0.2391  0.3543
 1773POPC   C1A19835  15.934  10.767   4.097  0.0494  0.0752  0.0287
 1773POPC   D2A19836  15.927  10.820   4.548 -0.3193  0.2251 -0.2459
 1773POPC   C3A19837  16.123  10.710   4.970 -0.4310  0.2525  0.2217
 1773POPC   C4A19838  16.137  10.353   5.260 -0.0253  0.0063  0.0090
 1773POPC   C1B19839  16.311  10.506   4.015  0.3286 -0.0796  0.0675
 1773POPC   C2B19840  16.345  10.405   4.407  0.2714  0.0720  0.0908
 1773POPC   C3B19841  16.568  10.591   4.800 -0.2029  0.2043 -0.2051
 1773POPC   C4B19842  16.934  10.717   5.124  0.3575 -0.4379  0.3927
 1774POPC   NC319843  26.912  16.041   3.463 -0.0234 -0.0354 -0.0282
 1774POPC   PO419844  26.565  16.164   3.298  0.0261  0.1804 -0.0693
 1774POPC   GL119845  26.546  16.064   3.710  0.1062 -0.0267 -0.0682
 1774POPC   GL219846  26.209  16.074   3.699 -0.1410 -0.1847  0.4445
 1774POPC   C1A19847  26.390  16.115   4.130 -0.2458 -0.2996 -0.2873
 1774POPC   D2A19848  26.308  16.372   4.518 -0.3105 -0.0949 -0.0973
 1774POPC   C3A19849  26.628  16.365   4.794 -0.2617  0.4012 -0.0190
 1774POPC   C4A19850  26.699  16.032   5.185  0.0173 -0.2333  0.0564
 1774POPC   C1B19851  26.081  16.362   3.844  0.0217  0.0370 -0.3717
 1774POPC   C2B19852  25.920  16.450   4.245  0.1727  0.3510 -0.3908
 1774POPC   C3B19853  25.770  16.473   4.753 -0.1427 -0.1921 -0.1660
 1774POPC   C4B19854  25.383  16.503   5.010 -0.1659  0.0848  0.0315
 1775POPC   NC319855   6.214  16.988   3.207 -0.0699  0.1179 -0.1905
 1775POPC   PO419856   5.833  16.897   3.157 -0.0830 -0.0919 -0.1047
 1775POPC   GL119857   5.727  16.703   3.431 -0.0352 -0.0263 -0.2679
 1775POPC   GL219858   5.954  16.854   3.544 -0.0038 -0.2676 -0.0357
 1775POPC   C1A19859   5.717  16.313   3.571 -0.3363 -0.0936  0.4001
 1775POPC   D2A19860   5.512  16.411   4.001  0.2385  0.0118  0.1274
 1775POPC   C3A19861   5.371  16.283   4.426 -0.0606 -0.0620  0.0502
 1775POPC   C4A19862   5.419  16.130   4.895  0.3484 -0.0043  0.0279
 1775POPC   C1B19863   5.771  16.805   3.869 -0.2944 -0.2282  0.3872
 1775POPC   C2B19864   5.665  16.710   4.269  0.0754 -0.0401  0.3087
 1775POPC   C3B19865   5.801  16.442   4.657 -0.1398 -0.1263 -0.2112
 1775POPC   C4B19866   5.975  16.305   5.044 -0.1639 -0.1292 -0.1048
 1776POPC   NC319867   6.074  27.401   3.297  0.0169  0.1558  0.1856
 1776POPC   PO419868   6.400  27.230   3.458  0.0070  0.0455 -0.0097
 1776POPC   GL119869   6.333  27.232   3.797 -0.2148 -0.1682 -0.1271
 1776POPC   GL219870   6.248  27.020   3.928 -0.3394 -0.1182 -0.2061
 1776POPC   C1A19871   6.423  27.501   4.234  0.0370 -0.1132  0.1013
 1776POPC   D2A19872   6.310  27.816   4.651 -0.1195  0.1664  0.3693
 1776POPC   C3A19873   6.381  28.309   4.788  0.3374 -0.3456  0.2004
 1776POPC   C4A19874   6.589  28.513   5.187 -0.2832 -0.1232 -0.1952
 1776POPC   C1B19875   6.156  27.087   4.273  0.1441 -0.1251 -0.0409
 1776POPC   C2B19876   6.086  27.259   4.599  0.1415  0.0381 -0.1699
 1776POPC   C3B19877   6.199  27.482   5.033 -0.3861 -0.3268  0.0735
 1776POPC   C4B19878   6.384  27.400   5.450 -0.4380 -0.1255  0.3930
 1777POPC   NC319879   6.045  22.139   3.576  0.1564 -0.0090 -0.1991
 1777POPC   PO419880   5.922  21.763   3.739  0.1825  0.0014  0.0541
 1777POPC   GL119881   5.773  21.693   4.190  0.3098  0.0162  0.1638
 1777POPC   GL219882   6.096  21.730   4.228  0.1457  0.0381  0.2045
 1777POPC   C1A19883   5.677  21.666   4.615 -0.0656  0.0991  0.0525
 1777POPC   D2A19884   5.631  21.761   5.072  0.2664 -0.0734 -0.1674
 1777POPC   C3A19885   5.463  22.089   5.357  0.0014 -0.1452 -0.1038
 1777POPC   C4A19886   5.345  22.186   5.833 -0.1234 -0.1848  0.0789
 1777POPC   C1B19887   6.111  21.885   4.535 -0.2406  0.0302  0.0441
 1777POPC   C2B19888   6.116  21.888   4.968  0.1216 -0.0049  0.1345
 1777POPC   C3B19889   5.928  21.950   5.381  0.0014  0.1229  0.0817
 1777POPC   C4B19890   5.824  22.019   5.837  0.3116 -0.0101 -0.1406
 1778POPC   NC319891   4.523  17.137   3.595  0.3101  0.2215  0.0282
 1778POPC   PO419892   4.446  16.773   3.419 -0.0151  0.1388  0.1637
 1778POPC   GL119893   4.239  16.446   3.635  0.0712 -0.4692 -0.0300
 1778POPC   GL219894   4.522  16.436   3.709 -0.1011 -0.4864  0.1518
 1778POPC   C1A19895   4.071  16.155   4.013 -0.0017 -0.1480  0.2020
 1778POPC   D2A19896   4.004  15.853   4.408  0.1061 -0.1500  0.1697
 1778POPC   C3A19897   3.843  15.953   4.867  0.0700  0.2292 -0.0207
 1778POPC   C4A19898   4.042  15.856   5.342 -0.2826 -0.1057  0.3052
 1778POPC   C1B19899   4.751  16.310   3.916 -0.0721  0.2092  0.2520
 1778POPC   C2B19900   4.992  16.082   4.115 -0.4256 -0.1820 -0.2135
 1778POPC   C3B19901   4.993  15.844   4.560  0.0262 -0.1115  0.2735
 1778POPC   C4B19902   5.062  15.677   5.074  0.0221  0.1167 -0.0882
 1779POPC   NC319903  21.927   8.018   3.204  0.1784  0.0072  0.0289
 1779POPC   PO419904  21.669   8.230   3.350 -0.0276  0.1053  0.1123
 1779POPC   GL119905  21.586   8.125   3.719  0.3635 -0.2014  0.2014
 1779POPC   GL219906  21.891   7.999   3.758  0.1129 -0.3401 -0.1516
 1779POPC   C1A19907  21.358   8.266   4.108  0.0656  0.0657  0.2683
 1779POPC   D2A19908  21.212   8.341   4.664 -0.2589 -0.1124 -0.2237
 1779POPC   C3A19909  21.195   8.488   5.122 -0.3870  0.0371  0.1044
 1779POPC   C4A19910  20.907   8.768   5.374 -0.2875 -0.2973 -0.0186
 1779POPC   C1B19911  22.035   8.343   3.860 -0.2240  0.1585 -0.0725
 1779POPC   C2B19912  22.060   8.477   4.238  0.0675  0.0192 -0.0602
 1779POPC   C3B19913  22.160   8.846   4.577  0.0353 -0.3052 -0.0534
 1779POPC   C4B19914  22.396   9.088   4.955 -0.0803 -0.0441  0.0043
 1780POPC   NC319915  18.487  21.306   3.648  0.0652  0.1166 -0.0202
 1780POPC   PO419916  18.126  21.342   3.742  0.1793  0.1786 -0.1333
 1780POPC   GL119917  18.100  21.270   4.214 -0.2945  0.0146  0.3202
 1780POPC   GL219918  17.827  21.254   4.198 -0.1695  0.3110 -0.0827
 1780POPC   C1A19919  18.073  21.433   4.643  0.0697  0.0016 -0.1621
 1780POPC   D2A19920  17.843  21.524   5.084  0.1652  0.2174 -0.3919
 1780POPC   C3A19921  17.520  21.284   5.377 -0.3236 -0.0362  0.2023
 1780POPC   C4A19922  17.327  20.956   5.758  0.0620 -0.0672  0.0453
 1780POPC   C1B19923  17.743  21.168   4.573  0.2909 -0.0223  0.2404
 1780POPC   C2B19924  17.586  21.032   4.957  0.0489 -0.2773 -0.2598
 1780POPC   C3B19925  17.402  20.743   5.195 -0.1506  0.1741 -0.1452
 1780POPC   C4B19926  17.021  20.537   5.285 -0.0540 -0.0664  0.2131
 1781POPC   NC319927   3.769   0.744   3.589  0.0338 -0.0175  0.2534
 1781POPC   PO419928   3.664   0.448   3.763  0.1887  0.0854 -0.1781
 1781POPC   GL119929   3.567   0.283   4.125 -0.2953 -0.0275 -0.0300
 1781POPC   GL219930   3.426   0.489   4.200 -0.1375 -0.1413  0.0779
 1781POPC   C1A19931   3.861   0.299   4.483  0.0574 -0.2344  0.3291
 1781POPC   D2A19932   3.983   0.558   4.834 -0.1379 -0.0589 -0.1582
 1781POPC   C3A19933   3.863   0.595   5.258 -0.0889 -0.0799 -0.0038
 1781POPC   C4A19934   3.623   0.739   5.714 -0.2623 -0.1432 -0.0252
 1781POPC   C1B19935   3.302   0.478   4.547  0.2186 -0.3817 -0.0951
 1781POPC   C2B19936   3.419   0.495   4.941  0.1177  0.1422  0.1030
 1781POPC   C3B19937   3.267   0.509   5.402 -0.1180 -0.2332 -0.4139
 1781POPC   C4B19938   3.225   0.545   5.861 -0.1939 -0.4283  0.0643
 1782POPC   NC319939   5.855  27.314   3.974  0.1250  0.2592 -0.2132
 1782POPC   PO419940   6.033  27.621   3.718  0.3523 -0.0304  0.0381
 1782POPC   GL119941   6.082  27.896   4.054 -0.0813 -0.0226 -0.2230
 1782POPC   GL219942   5.879  28.047   3.947  0.0977  0.0794  0.0317
 1782POPC   C1A19943   5.875  27.699   4.398  0.4911  0.1915  0.2475
 1782POPC   D2A19944   5.645  27.604   4.789  0.0448  0.0580  0.0034
 1782POPC   C3A19945   5.713  27.349   5.226 -0.1785 -0.1595  0.2246
 1782POPC   C4A19946   5.447  27.233   5.627  0.0323  0.0255 -0.0470
 1782POPC   C1B19947   5.800  28.395   4.094  0.2905  0.0002  0.0781
 1782POPC   C2B19948   5.753  28.522   4.528  0.1479  0.3464 -0.1521
 1782POPC   C3B19949   5.883  28.643   4.934 -0.3272  0.1741  0.2474
 1782POPC   C4B19950   5.771  28.660   5.463 -0.4933 -0.2460  0.1134
 1783POPC   NC319951  23.179   1.121   3.208 -0.0540 -0.1933  0.1009
 1783POPC   PO419952  22.798   1.112   3.421  0.2526  0.1169  0.1464
 1783POPC   GL119953  22.957   0.841   3.685 -0.0245 -0.2298  0.0738
 1783POPC   GL219954  22.648   0.846   3.793  0.3426 -0.0120 -0.1746
 1783POPC   C1A19955  23.087   0.993   4.065 -0.1471  0.0253  0.1113
 1783POPC   D2A19956  23.361   1.121   4.374 -0.0718  0.4385  0.1075
 1783POPC   C3A19957  23.369   0.879   4.794  0.0551 -0.0223  0.1307
 1783POPC   C4A19958  23.314   0.950   5.267  0.0417  0.0502 -0.0789
 1783POPC   C1B19959  22.628   0.945   4.148  0.0794  0.1038  0.1692
 1783POPC   C2B19960  22.446   0.731   4.454 -0.2071  0.0103  0.2443
 1783POPC   C3B19961  22.029   0.484   4.742 -0.0845 -0.0531 -0.0933
 1783POPC   C4B19962  21.975   0.043   5.082  0.2529  0.0631 -0.0643
 1784POPC   NC319963  18.978  16.427   3.084 -0.1103 -0.0214  0.2141
 1784POPC   PO419964  18.933  16.192   3.383  0.0940  0.2224 -0.2218
 1784POPC   GL119965  18.896  16.227   3.792  0.2386  0.2237 -0.1581
 1784POPC   GL219966  18.883  15.888   3.760  0.1497 -0.2144 -0.2506
 1784POPC   C1A19967  19.010  16.551   4.073 -0.0642  0.2293  0.1650
 1784POPC   D2A19968  19.213  16.640   4.539  0.1827 -0.0021  0.1181
 1784POPC   C3A19969  19.076  16.541   4.987  0.0029 -0.1777  0.0925
 1784POPC   C4A19970  19.005  16.354   5.440 -0.2041  0.1439  0.0562
 1784POPC   C1B19971  19.160  15.797   3.983  0.0230 -0.2115 -0.1815
 1784POPC   C2B19972  19.465  15.726   4.230 -0.1940 -0.0830  0.2505
 1784POPC   C3B19973  19.632  15.514   4.591  0.0273 -0.3320 -0.2529
 1784POPC   C4B19974  19.731  15.841   4.963 -0.0074 -0.2238 -0.1014
 1785POPC   NC319975  16.291  19.412   3.153 -0.0720  0.0402  0.2190
 1785POPC   PO419976  16.127  19.253   3.484 -0.0068 -0.0636  0.1158
 1785POPC   GL119977  16.021  19.555   3.785 -0.0445  0.2111  0.0787
 1785POPC   GL219978  16.215  19.464   3.938 -0.2435  0.1339 -0.0388
 1785POPC   C1A19979  15.858  19.277   4.105  0.0018  0.0970 -0.1029
 1785POPC   D2A19980  16.075  19.070   4.487  0.0434 -0.1960 -0.1565
 1785POPC   C3A19981  16.059  19.060   4.927  0.4436  0.4369  0.1337
 1785POPC   C4A19982  15.711  19.000   5.307 -0.0532 -0.1625  0.2591
 1785POPC   C1B19983  16.310  19.415   4.271 -0.0716  0.0628  0.4106
 1785POPC   C2B19984  16.445  19.307   4.703 -0.0649  0.0278 -0.0968
 1785POPC   C3B19985  16.598  19.342   5.111  0.1929 -0.0650 -0.0033
 1785POPC   C4B19986  16.912  19.446   5.458 -0.0899 -0.0071  0.0717
 1786POPC   NC319987   3.875  26.306   4.131 -0.0256  0.1762  0.1563
 1786POPC   PO419988   4.270  26.221   4.127  0.1243  0.1861 -0.2013
 1786POPC   GL119989   4.104  25.831   4.355  0.0401  0.0618  0.1740
 1786POPC   GL219990   3.944  25.956   4.444  0.2459 -0.2516  0.1322
 1786POPC   C1A19991   4.318  25.642   4.601 -0.0757 -0.1715 -0.0426
 1786POPC   D2A19992   4.230  25.708   5.064 -0.2273 -0.2431 -0.1256
 1786POPC   C3A19993   4.250  25.945   5.439  0.0889 -0.0100  0.0388
 1786POPC   C4A19994   4.241  26.297   5.780 -0.0866 -0.0299  0.0413
 1786POPC   C1B19995   4.122  26.157   4.715 -0.2978  0.1426 -0.1420
 1786POPC   C2B19996   4.270  26.328   5.080 -0.1586  0.0163  0.4396
 1786POPC   C3B19997   4.257  26.795   5.305  0.0509  0.2299  0.0504
 1786POPC   C4B19998   4.509  27.164   5.543 -0.0147 -0.3200 -0.1483
 1787POPC   NC319999   7.821  16.390   3.612  0.2493  0.0293  0.0880
 1787POPC   PO420000   7.973  16.763   3.636  0.1930  0.0210 -0.3180
 1787POPC   GL120001   8.093  16.858   4.054 -0.1803 -0.3532  0.0077
 1787POPC   GL220002   7.766  16.978   4.148 -0.2277 -0.2817 -0.0598
 1787POPC   C1A20003   8.203  16.765   4.453 -0.2565  0.2185  0.0382
 1787POPC   D2A20004   8.206  16.483   4.918  0.1099 -0.1109  0.2630
 1787POPC   C3A20005   7.997  16.337   5.281 -0.2468  0.1806  0.0902
 1787POPC   C4A20006   7.838  16.352   5.755  0.0428 -0.0360  0.0012
 1787POPC   C1B20007   7.486  17.013   4.360 -0.4774  0.4880 -0.1356
 1787POPC   C2B20008   7.397  17.172   4.700 -0.1501  0.0274  0.0851
 1787POPC   C3B20009   7.665  17.581   4.953  0.1786  0.0724  0.0880
 1787POPC   C4B20010   7.930  17.924   4.628  0.2372 -0.1144 -0.0040
 1788POPC   NC320011  13.773   4.348   3.967  0.1911  0.0608 -0.2573
 1788POPC   PO420012  14.089   4.569   4.040 -0.2590 -0.0544  0.1755
 1788POPC   GL120013  14.005   4.720   4.462  0.1045  0.0089  0.2515
 1788POPC   GL220014  14.338   4.656   4.516 -0.0139 -0.4443 -0.3457
 1788POPC   C1A20015  13.941   4.485   4.822  0.1963 -0.0648 -0.0719
 1788POPC   D2A20016  14.243   4.061   4.952  0.0752 -0.0031  0.1198
 1788POPC   C3A20017  14.610   3.982   5.162 -0.1946  0.1007  0.0661
 1788POPC   C4A20018  14.876   3.537   5.018  0.2574  0.0641  0.2073
 1788POPC   C1B20019  14.427   4.880   4.783  0.0438 -0.3290 -0.0610
 1788POPC   C2B20020  14.557   5.045   5.162  0.2563  0.2659 -0.0615
 1788POPC   C3B20021  14.967   5.006   5.543  0.0219 -0.2033  0.0134
 1788POPC   C4B20022  15.118   5.271   5.886 -0.1487  0.1101  0.1389
 1789POPC   NC320023  20.644  14.628   3.438 -0.2562 -0.2198 -0.0052
 1789POPC   PO420024  20.714  14.416   3.105  0.0669  0.0046  0.1839
 1789POPC   GL120025  21.112  14.204   3.221 -0.1847  0.0755  0.1984
 1789POPC   GL220026  20.879  14.056   3.313 -0.0721 -0.0216 -0.1168
 1789POPC   C1A20027  21.403  14.179   3.583  0.0825 -0.3409 -0.1938
 1789POPC   D2A20028  21.868  14.059   3.740 -0.0805  0.1920  0.3010
 1789POPC   C3A20029  22.105  13.889   4.083  0.0144  0.1291 -0.1139
 1789POPC   C4A20030  22.444  13.954   4.358 -0.1448  0.0306 -0.1978
 1789POPC   C1B20031  20.807  14.164   3.650  0.0683 -0.2372 -0.2322
 1789POPC   C2B20032  20.853  14.488   3.936  0.0853  0.1413 -0.1198
 1789POPC   C3B20033  20.847  14.745   4.366 -0.0814  0.0007 -0.2052
 1789POPC   C4B20034  21.240  14.863   4.603  0.2467 -0.0350 -0.0284
 1790POPC   NC320035  19.485  25.073   2.821  0.2423  0.0590  0.2737
 1790POPC   PO420036  19.469  24.946   3.193  0.0480 -0.1506 -0.2661
 1790POPC   GL120037  19.538  25.108   3.561  0.0165 -0.3644  0.0117
 1790POPC   GL220038  19.581  24.802   3.649 -0.3708 -0.0345 -0.1001
 1790POPC   C1A20039  19.479  25.273   3.971 -0.0093 -0.2079  0.1782
 1790POPC   D2A20040  19.522  25.616   4.264 -0.0554  0.0686 -0.2253
 1790POPC   C3A20041  19.295  25.539   4.688 -0.2991 -0.3853 -0.0187
 1790POPC   C4A20042  19.060  25.488   5.107 -0.0544 -0.1830 -0.0403
 1790POPC   C1B20043  19.694  24.878   4.022  0.1207 -0.0275 -0.1606
 1790POPC   C2B20044  19.734  24.706   4.401  0.2033  0.0170 -0.2435
 1790POPC   C3B20045  19.746  24.742   4.844 -0.1608  0.0946 -0.3114
 1790POPC   C4B20046  19.688  24.701   5.323 -0.1213 -0.1326  0.1198
 1791POPC   NC320047  17.172   6.733   2.886 -0.0639  0.0340  0.1956
 1791POPC   PO420048  17.468   6.943   3.096  0.1264  0.1657  0.0586
 1791POPC   GL120049  17.536   6.895   3.487 -0.0284 -0.0452  0.0813
 1791POPC   GL220050  17.799   6.961   3.594 -0.2140  0.0739 -0.2792
 1791POPC   C1A20051  17.209   6.735   3.811 -0.1850  0.2750 -0.1151
 1791POPC   D2A20052  17.006   6.616   4.233 -0.2789 -0.1464 -0.1293
 1791POPC   C3A20053  17.138   6.921   4.538  0.2488 -0.1165  0.0788
 1791POPC   C4A20054  17.008   7.354   4.812  0.3706 -0.1022  0.0556
 1791POPC   C1B20055  17.793   7.064   3.952 -0.3163 -0.2805 -0.2376
 1791POPC   C2B20056  17.670   7.175   4.345  0.1886  0.1072  0.2408
 1791POPC   C3B20057  17.633   7.391   4.778 -0.3453  0.1076  0.0504
 1791POPC   C4B20058  17.670   7.687   5.169 -0.2542 -0.0015 -0.1202
 1792POPC   NC320059   4.823  23.707   3.589  0.0101 -0.0936 -0.2423
 1792POPC   PO420060   4.852  23.526   3.928 -0.0477 -0.0858  0.1952
 1792POPC   GL120061   4.743  23.927   4.093  0.1814 -0.1586 -0.2049
 1792POPC   GL220062   4.861  23.796   4.312 -0.3614 -0.0669 -0.2474
 1792POPC   C1A20063   4.430  24.061   4.318 -0.1034  0.0881 -0.4950
 1792POPC   D2A20064   4.357  23.837   4.777  0.2373  0.0263  0.0734
 1792POPC   C3A20065   4.179  23.957   5.174  0.1081  0.2734  0.2137
 1792POPC   C4A20066   3.957  24.219   5.592 -0.1491  0.1382  0.0603
 1792POPC   C1B20067   4.842  23.868   4.667 -0.0949 -0.3629 -0.2572
 1792POPC   C2B20068   4.823  23.743   5.065 -0.2853 -0.0407 -0.0119
 1792POPC   C3B20069   4.949  23.571   5.489 -0.1298  0.1337  0.1271
 1792POPC   C4B20070   5.154  23.600   5.953  0.3365 -0.0395 -0.1270
 1793POPC   NC320071  13.920   9.624   3.672  0.0317 -0.1157  0.1314
 1793POPC   PO420072  13.631   9.806   3.824 -0.1583  0.0487  0.2333
 1793POPC   GL120073  13.648   9.873   4.205 -0.0883  0.2845 -0.2547
 1793POPC   GL220074  13.602   9.607   4.307 -0.0440 -0.3215  0.2819
 1793POPC   C1A20075  13.642  10.119   4.550 -0.1329 -0.2220  0.0183
 1793POPC   D2A20076  13.810  10.332   4.925  0.1229 -0.1299 -0.0196
 1793POPC   C3A20077  14.030  10.494   5.346  0.1841 -0.1039  0.2079
 1793POPC   C4A20078  14.255  10.807   5.637 -0.0681  0.2416 -0.0410
 1793POPC   C1B20079  13.640   9.675   4.678 -0.0623 -0.3067 -0.0103
 1793POPC   C2B20080  13.750   9.556   5.069  0.0526 -0.1842 -0.0851
 1793POPC   C3B20081  13.940   9.450   5.464  0.5850 -0.0295 -0.1428
 1793POPC   C4B20082  14.100   9.584   5.872 -0.2574 -0.3173 -0.1473
 1794POPC   NC320083  19.980  20.323   4.195  0.1197 -0.0707 -0.0730
 1794POPC   PO420084  20.340  20.509   4.060 -0.1640  0.0689 -0.3004
 1794POPC   GL120085  20.550  20.323   4.297  0.1641  0.1404  0.0791
 1794POPC   GL220086  20.508  20.060   4.224  0.1502 -0.1070 -0.0884
 1794POPC   C1A20087  20.574  20.204   4.701 -0.2602  0.0489  0.2237
 1794POPC   D2A20088  20.699  20.220   5.181 -0.0959 -0.1181  0.1071
 1794POPC   C3A20089  20.794  20.562   5.412  0.3996 -0.2503 -0.3234
 1794POPC   C4A20090  20.743  21.049   5.435  0.0790 -0.0128 -0.1138
 1794POPC   C1B20091  20.809  19.872   4.283  0.1923 -0.4709 -0.2563
 1794POPC   C2B20092  21.052  19.772   4.622 -0.0655  0.1084 -0.2256
 1794POPC   C3B20093  21.477  19.648   4.871  0.0313  0.2083  0.0197
 1794POPC   C4B20094  21.836  19.507   5.186 -0.2269  0.0066 -0.1002
 1795POPC   NC320095   6.914  23.880   3.973 -0.1330 -0.1041 -0.0884
 1795POPC   PO420096   6.509  23.778   4.036  0.0883 -0.0531  0.1079
 1795POPC   GL120097   6.493  23.785   4.389 -0.2015  0.0398  0.1041
 1795POPC   GL220098   6.253  23.760   4.490 -0.0675  0.3768 -0.3225
 1795POPC   C1A20099   6.787  23.672   4.670 -0.0675 -0.3607 -0.1767
 1795POPC   D2A20100   7.076  23.389   5.045  0.1159  0.0104  0.2400
 1795POPC   C3A20101   7.154  23.239   5.478 -0.1675 -0.3257  0.3955
 1795POPC   C4A20102   7.340  23.159   5.912 -0.0584  0.0198 -0.0466
 1795POPC   C1B20103   6.348  23.838   4.840 -0.2172 -0.2523  0.1517
 1795POPC   C2B20104   6.471  23.712   5.175 -0.0314  0.0093  0.0816
 1795POPC   C3B20105   6.719  23.689   5.603 -0.1821  0.1594  0.3445
 1795POPC   C4B20106   7.137  23.695   5.886  0.3131 -0.0598 -0.0167
 1796POPC   NC320107  22.920   8.101   2.938  0.0074 -0.0459 -0.1505
 1796POPC   PO420108  23.064   8.488   3.122 -0.3302  0.0179  0.0542
 1796POPC   GL120109  23.045   8.544   3.526  0.2932 -0.0126 -0.3148
 1796POPC   GL220110  22.837   8.672   3.657 -0.1436  0.2903  0.1061
 1796POPC   C1A20111  23.384   8.660   3.833 -0.2583  0.1544  0.1542
 1796POPC   D2A20112  23.419   8.629   4.362  0.1604  0.1436 -0.0324
 1796POPC   C3A20113  23.270   8.783   4.778 -0.0357  0.4947 -0.2079
 1796POPC   C4A20114  23.335   8.643   5.151  0.0922 -0.2277 -0.0716
 1796POPC   C1B20115  22.942   8.697   4.002 -0.0864 -0.1506  0.0223
 1796POPC   C2B20116  23.040   8.917   4.321 -0.0691  0.0551  0.0726
 1796POPC   C3B20117  22.897   9.197   4.683  0.2418  0.0314  0.0896
 1796POPC   C4B20118  22.982   9.420   5.076  0.0563 -0.0778 -0.0449
 1797POPC   NC320119  26.213   9.749   3.327  0.2855 -0.1991  0.1206
 1797POPC   PO420120  25.888   9.628   3.538 -0.0102  0.0675 -0.2624
 1797POPC   GL120121  25.873   9.586   3.971  0.4025 -0.1354  0.0082
 1797POPC   GL220122  25.832   9.301   3.929  0.0580  0.4637 -0.1190
 1797POPC   C1A20123  25.974   9.799   4.351 -0.0393 -0.3556 -0.0915
 1797POPC   D2A20124  26.006   9.825   4.819 -0.1436  0.3006 -0.0655
 1797POPC   C3A20125  25.881   9.654   5.250  0.1934 -0.0211  0.1800
 1797POPC   C4A20126  25.616   9.576   5.660 -0.5185 -0.0040  0.1497
 1797POPC   C1B20127  25.795   9.314   4.307  0.0540  0.1836 -0.1677
 1797POPC   C2B20128  25.735   9.345   4.754  0.1085  0.1594 -0.0279
 1797POPC   C3B20129  25.532   9.280   5.174  0.1463 -0.0780 -0.0813
 1797POPC   C4B20130  25.291   9.108   5.594 -0.0707 -0.1739 -0.1858
 1798POPC   NC320131  12.423  17.606   2.898 -0.3286 -0.1525  0.4446
 1798POPC   PO420132  12.746  17.471   3.103  0.0289  0.0914  0.0638
 1798POPC   GL120133  12.885  17.363   3.456 -0.0559  0.2951  0.1664
 1798POPC   GL220134  12.718  17.637   3.584  0.1030 -0.0264  0.0331
 1798POPC   C1A20135  12.950  17.174   3.821 -0.1410 -0.0171  0.0390
 1798POPC   D2A20136  13.254  16.946   4.178 -0.0994 -0.2434  0.1979
 1798POPC   C3A20137  13.471  16.868   4.563  0.0310 -0.2304  0.0992
 1798POPC   C4A20138  13.518  16.800   5.076  0.2342 -0.1258 -0.0724
 1798POPC   C1B20139  12.761  17.632   3.927 -0.0139  0.0870 -0.1176
 1798POPC   C2B20140  12.543  17.599   4.257 -0.3682  0.2299 -0.4393
 1798POPC   C3B20141  12.495  17.381   4.716 -0.0907 -0.0483 -0.1831
 1798POPC   C4B20142  12.645  17.201   5.193 -0.2766  0.2976  0.0701
 1799POPC   NC320143  11.425  26.031   3.543 -0.1418  0.0714 -0.3190
 1799POPC   PO420144  11.771  25.897   3.712  0.2433 -0.3054 -0.1718
 1799POPC   GL120145  11.683  25.786   4.111  0.1982  0.2309 -0.1912
 1799POPC   GL220146  11.429  25.985   4.001 -0.2445  0.0956 -0.2466
 1799POPC   C1A20147  11.729  25.517   4.469 -0.0159  0.2201 -0.0501
 1799POPC   D2A20148  11.995  25.326   4.809  0.0641  0.3990  0.1074
 1799POPC   C3A20149  12.134  25.536   5.246  0.0922 -0.1397  0.2468
 1799POPC   C4A20150  11.778  25.691   5.507  0.0431  0.1624  0.0120
 1799POPC   C1B20151  11.286  26.008   4.346  0.4031 -0.0484 -0.2898
 1799POPC   C2B20152  11.267  26.086   4.753  0.0576  0.3495 -0.2117
 1799POPC   C3B20153  11.288  26.097   5.253 -0.2000  0.2401  0.0251
 1799POPC   C4B20154  11.386  26.234   5.676 -0.3076  0.1399  0.0323
 1800POPC   NC320155   6.144  10.796   2.866  0.2080 -0.3155 -0.3564
 1800POPC   PO420156   5.959  10.463   2.961 -0.1305  0.1581  0.0675
 1800POPC   GL120157   5.812  10.577   3.226  0.0460  0.3392  0.0772
 1800POPC   GL220158   5.758  10.288   3.297  0.2109 -0.0654  0.3266
 1800POPC   C1A20159   5.891  10.840   3.560  0.3317  0.0429  0.1217
 1800POPC   D2A20160   5.885  11.107   4.000  0.1338 -0.3038 -0.0066
 1800POPC   C3A20161   5.909  11.076   4.479 -0.0258  0.0754 -0.1007
 1800POPC   C4A20162   6.048  11.129   4.937  0.1765 -0.0268  0.2247
 1800POPC   C1B20163   5.797  10.115   3.619  0.2100  0.1332 -0.0772
 1800POPC   C2B20164   6.093   9.945   3.876 -0.1354  0.0309  0.0365
 1800POPC   C3B20165   6.561   9.785   4.144  0.4044  0.0513  0.1682
 1800POPC   C4B20166   6.587   9.595   4.596 -0.0371 -0.1157  0.1714
 1801POPC   NC320167  16.248  16.182   3.121  0.0964 -0.0457  0.0645
 1801POPC   PO420168  16.481  16.223   3.444 -0.1212  0.1988  0.1709
 1801POPC   GL120169  16.399  16.200   3.843 -0.4759 -0.2882 -0.1860
 1801POPC   GL220170  16.750  16.256   3.801  0.0205 -0.2261  0.0615
 1801POPC   C1A20171  16.326  15.978   4.198  0.0935  0.2261  0.0069
 1801POPC   D2A20172  16.173  15.912   4.632  0.3132  0.2663 -0.1183
 1801POPC   C3A20173  16.350  15.726   4.964 -0.4111  0.0270  0.0140
 1801POPC   C4A20174  16.449  15.223   5.109 -0.1300 -0.3698  0.1020
 1801POPC   C1B20175  16.855  15.971   4.047  0.1770  0.1038 -0.2075
 1801POPC   C2B20176  17.130  15.825   4.347  0.2638 -0.0943  0.1453
 1801POPC   C3B20177  16.987  15.787   4.821  0.2303  0.0077  0.2968
 1801POPC   C4B20178  16.757  15.680   5.229  0.0562  0.0781 -0.2089
 1802POPC   NC320179  17.697  17.093   3.384 -0.2494 -0.4797 -0.2406
 1802POPC   PO420180  17.313  16.944   3.427  0.2736 -0.2286 -0.1304
 1802POPC   GL120181  17.224  16.969   3.845 -0.4084 -0.0558  0.1459
 1802POPC   GL220182  17.447  17.131   3.871 -0.2206 -0.1297 -0.1599
 1802POPC   C1A20183  16.874  16.780   4.007 -0.0926  0.1459 -0.0263
 1802POPC   D2A20184  16.563  16.447   4.219 -0.0593  0.0524  0.1481
 1802POPC   C3A20185  16.231  16.445   4.527  0.2032  0.3241  0.0745
 1802POPC   C4A20186  15.965  16.323   4.893 -0.0311 -0.0629 -0.0611
 1802POPC   C1B20187  17.629  17.157   4.198  0.1644 -0.0873 -0.1341
 1802POPC   C2B20188  17.481  17.154   4.572 -0.0897  0.0576 -0.1629
 1802POPC   C3B20189  17.416  17.214   5.011 -0.0732 -0.2553 -0.1369
 1802POPC   C4B20190  17.355  17.255   5.541 -0.2175 -0.0085 -0.2743
 1803PAPC   NC320191  13.334   8.984   3.868  0.1445  0.0466  0.0946
 1803PAPC   PO420192  13.579   9.063   4.145  0.3526 -0.1442 -0.2439
 1803PAPC   GL120193  13.525   8.982   4.496 -0.3531 -0.0629  0.0862
 1803PAPC   GL220194  13.287   8.847   4.408 -0.4792 -0.3322  0.1063
 1803PAPC   C1A20195  13.509   9.020   4.880 -0.0772 -0.1345  0.2348
 1803PAPC   D2A20196  13.455   8.993   5.249 -0.0452  0.0798 -0.0907
 1803PAPC   D3A20197  13.399   8.633   5.490  0.0764 -0.2363 -0.1542
 1803PAPC   D4A20198  13.019   8.363   5.450 -0.2163  0.0593  0.1895
 1803PAPC   C5A20199  13.147   8.277   5.910  0.3717 -0.0956 -0.0149
 1803PAPC   C1B20200  12.999   8.783   4.653  0.2549  0.1074 -0.2495
 1803PAPC   C2B20201  12.943   8.793   5.061 -0.2454 -0.1780  0.0252
 1803PAPC   C3B20202  12.886   8.888   5.477 -0.0109 -0.0165 -0.1324
 1803PAPC   C4B20203  13.028   8.760   5.910 -0.1398 -0.1892 -0.2963
 1804PAPC   NC320204  22.131   9.177   3.585  0.0117  0.1452  0.1893
 1804PAPC   PO420205  22.275   8.927   3.340  0.0493  0.2284  0.2230
 1804PAPC   GL120206  22.132   8.730   3.654  0.3061 -0.1487 -0.1152
 1804PAPC   GL220207  22.383   8.637   3.650 -0.1795 -0.2258 -0.2254
 1804PAPC   C1A20208  22.097   8.851   4.024  0.1827 -0.0363 -0.0617
 1804PAPC   D2A20209  21.785   8.869   4.252  0.0572 -0.1280  0.1025
 1804PAPC   D3A20210  21.635   8.572   4.574  0.1585 -0.0749  0.1006
 1804PAPC   D4A20211  21.504   8.982   4.721  0.0006 -0.0793  0.0506
 1804PAPC   C5A20212  21.325   9.044   5.171 -0.0627 -0.0307 -0.2719
 1804PAPC   C1B20213  22.422   8.463   3.974 -0.2738 -0.5010  0.1963
 1804PAPC   C2B20214  22.592   8.674   4.275  0.1514 -0.2321 -0.1382
 1804PAPC   C3B20215  22.723   8.716   4.704 -0.2007 -0.0112  0.1104
 1804PAPC   C4B20216  22.807   8.849   5.140 -0.1278  0.1260  0.0008
 1805PAPC   NC320217  27.113  14.643   3.258 -0.2907 -0.1332 -0.1757
 1805PAPC   PO420218  27.285  15.000   3.350 -0.0734  0.1682 -0.1163
 1805PAPC   GL120219  27.218  15.236   3.676 -0.3088 -0.3041 -0.2266
 1805PAPC   GL220220  27.034  15.073   3.705  0.0392 -0.1246  0.0393
 1805PAPC   C1A20221  27.239  15.338   4.013  0.3271  0.2412  0.0609
 1805PAPC   D2A20222  27.356  15.251   4.354  0.0812 -0.1957 -0.0788
 1805PAPC   D3A20223  27.060  15.123   4.701 -0.2599  0.1433 -0.0195
 1805PAPC   D4A20224  26.791  15.194   5.065  0.1102  0.2159 -0.2705
 1805PAPC   C5A20225  26.828  15.524   5.436 -0.0270 -0.1039  0.0592
 1805PAPC   C1B20226  26.940  14.882   4.045 -0.1593 -0.2089 -0.1126
 1805PAPC   C2B20227  26.855  14.668   4.399  0.0636 -0.0769 -0.2399
 1805PAPC   C3B20228  26.876  14.532   4.814 -0.0314 -0.1435 -0.0570
 1805PAPC   C4B20229  26.630  14.268   5.210  0.1028  0.1151  0.1854
 1806PAPC   NC320230  11.173  27.046   3.553  0.2666  0.0342 -0.0213
 1806PAPC   PO420231  11.334  26.766   3.801 -0.0321 -0.1680  0.1886
 1806PAPC   GL120232  11.207  26.870   4.153  0.1467  0.4798  0.0022
 1806PAPC   GL220233  11.386  27.045   4.208 -0.1058  0.0793  0.1933
 1806PAPC   C1A20234  10.981  27.152   4.184  0.1195 -0.4092  0.0492
 1806PAPC   D2A20235  10.628  27.202   4.209  0.1044  0.0725  0.0977
 1806PAPC   D3A20236  10.319  27.497   4.178 -0.0789 -0.0286  0.0079
 1806PAPC   D4A20237  10.100  27.812   4.432 -0.1455 -0.2003 -0.0336
 1806PAPC   C5A20238   9.828  28.173   4.591 -0.0536 -0.2787  0.0112
 1806PAPC   C1B20239  11.401  27.057   4.523  0.0479  0.2536 -0.0158
 1806PAPC   C2B20240  11.264  26.865   4.865  0.0570 -0.2811 -0.0680
 1806PAPC   C3B20241  11.122  27.083   5.300 -0.1820 -0.1798  0.0846
 1806PAPC   C4B20242  11.136  27.001   5.786  0.3707  0.2234 -0.1309
 1807PAPC   NC320243  10.643   1.537   3.397 -0.1172  0.1525 -0.2314
 1807PAPC   PO420244  10.951   1.389   3.152  0.1216  0.0331  0.1527
 1807PAPC   GL120245  11.137   1.264   3.450 -0.1671 -0.2712 -0.0973
 1807PAPC   GL220246  11.430   1.344   3.440 -0.0770  0.2579  0.1817
 1807PAPC   C1A20247  11.000   1.345   3.744 -0.2915  0.3697  0.0569
 1807PAPC   D2A20248  10.855   1.126   4.053 -0.2016  0.3982  0.0042
 1807PAPC   D3A20249  10.866   1.179   4.494  0.0561 -0.0657  0.0716
 1807PAPC   D4A20250  10.815   0.869   4.831  0.0362  0.0227  0.1641
 1807PAPC   C5A20251  10.370   0.987   4.954 -0.0291 -0.0762 -0.0468
 1807PAPC   C1B20252  11.409   1.349   3.813  0.2872  0.2135  0.1050
 1807PAPC   C2B20253  11.346   1.218   4.224 -0.1088 -0.0460  0.0013
 1807PAPC   C3B20254  11.330   1.143   4.717  0.2476 -0.0083  0.0406
 1807PAPC   C4B20255  11.414   1.224   5.176  0.1688  0.0208  0.3496
 1808PAPC   NC320256  26.501  25.149   3.290 -0.0125  0.2519  0.2257
 1808PAPC   PO420257  26.816  24.965   3.373  0.0736 -0.1261  0.0538
 1808PAPC   GL120258  26.666  24.624   3.585  0.2171 -0.2090 -0.1930
 1808PAPC   GL220259  26.470  24.876   3.721 -0.2039  0.3115 -0.2592
 1808PAPC   C1A20260  26.555  24.404   3.826  0.1354 -0.2319 -0.2177
 1808PAPC   D2A20261  26.660  24.379   4.234  0.2301 -0.2283 -0.3054
 1808PAPC   D3A20262  26.698  24.460   4.700 -0.1463  0.0109 -0.3701
 1808PAPC   D4A20263  26.683  24.540   5.130 -0.0552  0.0135 -0.0065
 1808PAPC   C5A20264  26.595  24.330   5.534  0.2533 -0.4534  0.1393
 1808PAPC   C1B20265  26.394  24.757   4.107 -0.0924  0.2586  0.3064
 1808PAPC   C2B20266  26.298  24.711   4.481  0.0922 -0.1823  0.1997
 1808PAPC   C3B20267  26.196  24.689   4.914 -0.0651 -0.0076  0.1156
 1808PAPC   C4B20268  26.167  24.650   5.432  0.0599 -0.0518 -0.1957
 1809PAPC   NC320269  22.064  27.299   3.441 -0.3721  0.2307  0.0153
 1809PAPC   PO420270  22.370  27.099   3.385  0.0163 -0.2567  0.1163
 1809PAPC   GL120271  22.520  27.090   3.751  0.0290 -0.1636 -0.0905
 1809PAPC   GL220272  22.377  27.246   3.901  0.3128  0.0405 -0.4227
 1809PAPC   C1A20273  22.650  26.835   4.002  0.1032 -0.2115 -0.1138
 1809PAPC   D2A20274  22.539  26.452   4.021 -0.0050  0.0479 -0.1931
 1809PAPC   D3A20275  22.735  26.164   4.265 -0.0235 -0.1211  0.0604
 1809PAPC   D4A20276  22.732  25.875   4.700 -0.0156 -0.0314 -0.1816
 1809PAPC   C5A20277  22.924  25.630   5.066  0.0814  0.3737 -0.0467
 1809PAPC   C1B20278  22.472  27.509   4.142 -0.0963 -0.0119  0.0324
 1809PAPC   C2B20279  22.714  27.601   4.467  0.2350 -0.1288  0.0798
 1809PAPC   C3B20280  23.081  27.775   4.701 -0.3608 -0.2712  0.0655
 1809PAPC   C4B20281  23.414  28.061   4.943  0.0532  0.0729  0.1809
 1810PAPC   NC320282   7.686  14.754   2.681 -0.2959 -0.1246 -0.1975
 1810PAPC   PO420283   7.385  14.564   2.870  0.1574  0.0383 -0.0812
 1810PAPC   GL120284   7.465  14.551   3.250  0.4050  0.5671 -0.0456
 1810PAPC   GL220285   7.468  14.267   3.327  0.3530  0.4713 -0.0347
 1810PAPC   C1A20286   7.464  14.689   3.592 -0.0502 -0.0376 -0.1948
 1810PAPC   D2A20287   7.479  15.061   3.759  0.1688  0.1437 -0.0346
 1810PAPC   D3A20288   7.030  15.184   3.749 -0.3501  0.1395  0.0619
 1810PAPC   D4A20289   6.791  15.098   4.076 -0.1780  0.1997  0.0921
 1810PAPC   C5A20290   6.733  14.846   4.505  0.0517 -0.0523  0.0915
 1810PAPC   C1B20291   7.554  14.236   3.704 -0.0814 -0.0456 -0.5275
 1810PAPC   C2B20292   7.595  14.233   4.137  0.2151 -0.1259  0.1207
 1810PAPC   C3B20293   7.637  14.116   4.624 -0.3644  0.3644  0.0021
 1810PAPC   C4B20294   7.985  14.154   4.969  0.0658  0.0391  0.0160
 1811PAPC   NC320295  10.698   7.351   3.297  0.1300 -0.1377  0.0923
 1811PAPC   PO420296  10.668   7.567   3.629 -0.2720  0.0625  0.2673
 1811PAPC   GL120297  10.561   7.562   4.032 -0.0371  0.1956 -0.0166
 1811PAPC   GL220298  10.699   7.328   4.021 -0.3471  0.2619  0.4221
 1811PAPC   C1A20299  10.637   7.763   4.332 -0.0627  0.1061  0.0298
 1811PAPC   D2A20300  10.617   7.485   4.639  0.1860 -0.0175 -0.0587
 1811PAPC   D3A20301  10.528   7.124   4.899 -0.0773 -0.0684  0.3118
 1811PAPC   D4A20302  10.206   7.003   5.169  0.0652 -0.3738 -0.4008
 1811PAPC   C5A20303  10.277   6.562   5.301 -0.1992 -0.1098 -0.0976
 1811PAPC   C1B20304  10.626   7.135   4.315  0.0903 -0.1377 -0.0570
 1811PAPC   C2B20305  10.416   6.863   4.519  0.0970  0.2952 -0.0802
 1811PAPC   C3B20306  10.041   6.712   4.813 -0.0526 -0.4390  0.0328
 1811PAPC   C4B20307   9.562   6.799   4.922  0.1802  0.3751  0.1819
 1812PAPC   NC320308   8.070   2.311   2.875  0.0402  0.2763  0.1248
 1812PAPC   PO420309   8.157   2.559   3.180  0.0362 -0.2659 -0.0805
 1812PAPC   GL120310   7.980   2.677   3.550  0.3208 -0.1510 -0.1492
 1812PAPC   GL220311   7.791   2.507   3.690  0.3381  0.0413 -0.0182
 1812PAPC   C1A20312   8.089   2.853   3.875  0.3584 -0.1713  0.1453
 1812PAPC   D2A20313   7.995   3.078   4.167  0.1362  0.0510 -0.0630
 1812PAPC   D3A20314   8.259   3.101   4.521  0.1941  0.1765 -0.0795
 1812PAPC   D4A20315   8.171   3.247   4.869 -0.0704  0.0497 -0.5049
 1812PAPC   C5A20316   8.244   3.105   5.313  0.0393 -0.0504 -0.1817
 1812PAPC   C1B20317   8.026   2.443   3.993  0.0429 -0.3244  0.3976
 1812PAPC   C2B20318   8.006   2.576   4.349 -0.1543  0.1297 -0.1456
 1812PAPC   C3B20319   8.044   2.677   4.821  0.0040  0.2325 -0.2936
 1812PAPC   C4B20320   7.810   2.938   5.166 -0.1369  0.2378 -0.3295
 1813PAPC   NC320321  14.072   2.512   3.787  0.2065  0.0799  0.1283
 1813PAPC   PO420322  13.680   2.573   3.780  0.1522 -0.0310 -0.2006
 1813PAPC   GL120323  13.587   2.603   4.133 -0.4209  0.0131  0.0726
 1813PAPC   GL220324  13.758   2.546   4.275 -0.1052  0.1957 -0.1925
 1813PAPC   C1A20325  13.379   2.789   4.351  0.1968  0.0881  0.1781
 1813PAPC   D2A20326  12.976   2.895   4.426 -0.1716  0.3173 -0.1909
 1813PAPC   D3A20327  12.866   2.764   4.822 -0.0816 -0.0055  0.0180
 1813PAPC   D4A20328  12.542   2.589   5.021  0.0770  0.2840  0.5220
 1813PAPC   C5A20329  12.696   2.465   5.431 -0.2673 -0.0310 -0.4135
 1813PAPC   C1B20330  13.735   2.470   4.636 -0.2597  0.1742 -0.1478
 1813PAPC   C2B20331  13.672   2.472   5.003  0.1521 -0.0084  0.3199
 1813PAPC   C3B20332  13.567   2.166   5.334  0.0619 -0.1654 -0.0204
 1813PAPC   C4B20333  13.620   1.707   5.384 -0.1334 -0.0115 -0.2425
 1814PAPC   NC320334  21.280  20.570   3.946  0.2948 -0.2773 -0.0833
 1814PAPC   PO420335  21.519  20.683   3.688  0.1084  0.1317  0.1426
 1814PAPC   GL120336  21.635  20.998   3.986 -0.0348 -0.2560  0.0748
 1814PAPC   GL220337  21.524  20.913   4.173  0.0496  0.3661  0.0715
 1814PAPC   C1A20338  21.687  21.363   4.120  0.1073 -0.0387 -0.0620
 1814PAPC   D2A20339  21.901  21.698   4.187  0.1767 -0.1675  0.0907
 1814PAPC   D3A20340  22.244  21.947   4.477  0.1412 -0.1858  0.1597
 1814PAPC   D4A20341  22.572  21.955   4.764  0.1890 -0.0320  0.1746
 1814PAPC   C5A20342  22.566  21.923   5.192  0.2558 -0.0641  0.2923
 1814PAPC   C1B20343  21.577  21.030   4.513  0.0512 -0.1443  0.0707
 1814PAPC   C2B20344  21.699  21.052   4.923 -0.2608  0.2240  0.1136
 1814PAPC   C3B20345  21.989  21.179   5.325  0.1967 -0.2463  0.0017
 1814PAPC   C4B20346  22.240  21.503   5.605  0.1636  0.0531  0.1648
 1815PAPC   NC320347  21.442  13.317   3.610 -0.0092  0.0117 -0.1687
 1815PAPC   PO420348  21.630  12.972   3.678  0.4416 -0.0748 -0.1611
 1815PAPC   GL120349  21.500  13.036   4.003 -0.2453  0.2580 -0.2587
 1815PAPC   GL220350  21.248  12.969   3.909 -0.1881 -0.1813 -0.3644
 1815PAPC   C1A20351  21.428  13.009   4.377  0.2735  0.2701 -0.3083
 1815PAPC   D2A20352  21.524  12.961   4.778 -0.3153  0.1856  0.4604
 1815PAPC   D3A20353  21.508  13.253   5.083 -0.3314 -0.0826 -0.2544
 1815PAPC   D4A20354  21.546  13.324   5.525 -0.0162 -0.0403  0.0942
 1815PAPC   C5A20355  21.300  13.754   5.467  0.0088 -0.2172  0.0612
 1815PAPC   C1B20356  20.970  13.046   4.078 -0.2469 -0.0132 -0.0279
 1815PAPC   C2B20357  20.778  13.197   4.411  0.3418 -0.0579 -0.0811
 1815PAPC   C3B20358  20.570  13.448   4.799 -0.1848 -0.1047 -0.1543
 1815PAPC   C4B20359  20.461  13.659   5.223 -0.0868 -0.0167 -0.1923
 1816PAPC   NC320360  12.770  23.352   3.426  0.0258 -0.1204  0.0526
 1816PAPC   PO420361  12.405  23.189   3.413  0.0326 -0.0150  0.2095
 1816PAPC   GL120362  12.265  23.070   3.771 -0.0696  0.2281 -0.0497
 1816PAPC   GL220363  11.991  23.004   3.773  0.1664  0.1725 -0.0887
 1816PAPC   C1A20364  12.369  22.974   4.111 -0.3169  0.0965  0.1597
 1816PAPC   D2A20365  12.471  22.813   4.423 -0.4381 -0.1280 -0.5126
 1816PAPC   D3A20366  12.648  22.679   4.785  0.1243  0.0911 -0.1438
 1816PAPC   D4A20367  12.957  22.903   4.975 -0.1828 -0.0023  0.1555
 1816PAPC   C5A20368  12.935  23.202   5.298  0.1154  0.3271 -0.0427
 1816PAPC   C1B20369  11.939  22.868   4.098 -0.0995  0.1363 -0.4240
 1816PAPC   C2B20370  11.700  22.927   4.434 -0.3337  0.0001  0.5175
 1816PAPC   C3B20371  11.786  22.736   4.904 -0.0400 -0.3444 -0.0139
 1816PAPC   C4B20372  11.609  22.584   5.356  0.1225  0.3140 -0.3189
 1817PAPC   NC320373  15.887  15.014   3.368 -0.0946 -0.2158 -0.0117
 1817PAPC   PO420374  16.105  14.643   3.348 -0.0664 -0.0964  0.1319
 1817PAPC   GL120375  16.300  14.360   3.660 -0.2289  0.0420 -0.1809
 1817PAPC   GL220376  16.263  14.595   3.758  0.0903  0.0190 -0.0415
 1817PAPC   C1A20377  16.251  14.126   3.942 -0.0795 -0.0182  0.0430
 1817PAPC   D2A20378  16.377  13.704   4.019 -0.0585  0.1275  0.3873
 1817PAPC   D3A20379  16.187  13.258   4.134 -0.1148 -0.1116 -0.2644
 1817PAPC   D4A20380  16.025  13.079   4.511 -0.0828  0.0227  0.2553
 1817PAPC   C5A20381  15.722  13.287   4.780 -0.0918 -0.1199 -0.0269
 1817PAPC   C1B20382  16.639  14.492   3.877  0.0083 -0.2585  0.0699
 1817PAPC   C2B20383  17.062  14.439   4.053 -0.0380 -0.3453 -0.2220
 1817PAPC   C3B20384  17.211  14.524   4.439  0.0401 -0.1036 -0.0472
 1817PAPC   C4B20385  17.152  14.600   4.903 -0.0038 -0.0412 -0.0241
 1818PAPC   NC320386  18.043  16.257   3.602  0.2220 -0.3060  0.0411
 1818PAPC   PO420387  18.288  16.543   3.590  0.2299  0.1420  0.3953
 1818PAPC   GL120388  18.390  16.443   3.977 -0.2323  0.1176  0.2431
 1818PAPC   GL220389  18.191  16.650   4.146 -0.1840 -0.2232 -0.1225
 1818PAPC   C1A20390  18.617  16.369   4.243 -0.0096  0.2534 -0.2095
 1818PAPC   D2A20391  18.738  16.503   4.578 -0.0454  0.1122 -0.0061
 1818PAPC   D3A20392  18.864  16.089   4.704  0.0308  0.0350 -0.3886
 1818PAPC   D4A20393  19.027  16.007   5.068  0.2293  0.0583  0.0920
 1818PAPC   C5A20394  19.249  15.685   4.869  0.0980 -0.3262 -0.0968
 1818PAPC   C1B20395  18.286  16.677   4.538 -0.2664 -0.1812 -0.4590
 1818PAPC   C2B20396  18.314  16.709   4.967  0.0958 -0.0147  0.1143
 1818PAPC   C3B20397  18.416  16.460   5.436  0.1973 -0.0450  0.1186
 1818PAPC   C4B20398  18.694  16.406   5.855 -0.1059  0.2015 -0.1817
 1819PAPC   NC320399   0.031  16.612   3.285  0.2448 -0.1513 -0.3610
 1819PAPC   PO420400   0.023  16.345   3.585 -0.1486  0.1443  0.0580
 1819PAPC   GL120401   0.227  16.292   3.931  0.4782 -0.3093  0.1083
 1819PAPC   GL220402   0.358  16.554   4.050 -0.2942  0.4845  0.1369
 1819PAPC   C1A20403  -0.012  16.370   4.187 -0.1171 -0.3279  0.1396
 1819PAPC   D2A20404  -0.256  16.383   4.444 -0.2940 -0.2559 -0.4322
 1819PAPC   D3A20405  -0.712  16.502   4.430 -0.1083 -0.2011 -0.2148
 1819PAPC   D4A20406  -0.801  16.749   4.065 -0.0434 -0.1365 -0.0582
 1819PAPC   C5A20407  -1.268  16.663   4.150 -0.0769 -0.3058 -0.0261
 1819PAPC   C1B20408   0.495  16.544   4.412 -0.3413  0.0399  0.0896
 1819PAPC   C2B20409   0.675  16.511   4.812  0.2601  0.3530  0.0494
 1819PAPC   C3B20410   0.851  16.671   5.172  0.0322  0.0116  0.0018
 1819PAPC   C4B20411   1.361  16.606   5.162 -0.0603  0.0114  0.0200
 1820PAPC   NC320412  19.910  25.804   3.256 -0.2360 -0.3178 -0.1308
 1820PAPC   PO420413  20.178  25.602   3.509 -0.0720  0.0202 -0.0072
 1820PAPC   GL120414  20.308  25.768   3.869 -0.1046 -0.2604  0.0236
 1820PAPC   GL220415  20.564  25.665   3.835  0.0637  0.0241 -0.2042
 1820PAPC   C1A20416  20.083  25.746   4.181  0.0128 -0.0423  0.3452
 1820PAPC   D2A20417  19.898  25.773   4.605  0.1642 -0.1615  0.1279
 1820PAPC   D3A20418  20.154  26.094   4.773 -0.0604  0.2305  0.0290
 1820PAPC   D4A20419  19.875  26.240   5.076 -0.1694 -0.0081  0.1176
 1820PAPC   C5A20420  20.017  26.470   5.443 -0.2865  0.1220  0.2783
 1820PAPC   C1B20421  20.483  25.463   4.080 -0.2185 -0.0763  0.1092
 1820PAPC   C2B20422  20.454  25.565   4.496 -0.0239 -0.0882 -0.1226
 1820PAPC   C3B20423  20.286  25.701   4.946  0.4699 -0.1326  0.0489
 1820PAPC   C4B20424  20.129  25.583   5.446 -0.0955  0.1398 -0.0585
 1821PAPC   NC320425  14.392  23.123   3.467 -0.0584 -0.0592 -0.0990
 1821PAPC   PO420426  14.725  22.872   3.527 -0.0509 -0.2345  0.0608
 1821PAPC   GL120427  14.664  22.688   3.919  0.2492 -0.0997 -0.0852
 1821PAPC   GL220428  14.549  22.911   4.050 -0.1669 -0.0908  0.0032
 1821PAPC   C1A20429  14.547  22.366   4.039  0.1561 -0.3825 -0.1497
 1821PAPC   D2A20430  14.412  22.491   4.410  0.0390 -0.1661  0.2350
 1821PAPC   D3A20431  14.013  22.409   4.594  0.0776  0.1725 -0.0959
 1821PAPC   D4A20432  14.145  22.822   4.795 -0.0459 -0.1558 -0.0829
 1821PAPC   C5A20433  13.979  22.765   5.227  0.0227  0.2845 -0.0487
 1821PAPC   C1B20434  14.687  22.999   4.355 -0.0765  0.0733 -0.3072
 1821PAPC   C2B20435  14.694  23.050   4.757 -0.1142  0.1170  0.0999
 1821PAPC   C3B20436  14.870  22.982   5.165 -0.0137 -0.2557  0.2205
 1821PAPC   C4B20437  14.746  22.951   5.622  0.0274  0.1018 -0.1214
 1822PAPC   NC320438  24.592  19.537   3.831  0.0519  0.2778  0.1105
 1822PAPC   PO420439  24.812  19.871   3.711  0.1322 -0.2064 -0.0275
 1822PAPC   GL120440  24.946  19.953   4.113 -0.3632 -0.0888  0.0114
 1822PAPC   GL220441  25.040  20.227   3.964 -0.1429 -0.2065  0.1641
 1822PAPC   C1A20442  24.808  19.975   4.433 -0.2004  0.1875  0.2239
 1822PAPC   D2A20443  24.696  20.095   4.778 -0.1221  0.2207  0.0862
 1822PAPC   D3A20444  24.749  20.488   5.016 -0.2945  0.3357  0.0909
 1822PAPC   D4A20445  24.673  20.306   5.380  0.1287  0.0266  0.1946
 1822PAPC   C5A20446  24.907  20.141   5.711 -0.0216 -0.0946 -0.2266
 1822PAPC   C1B20447  25.153  20.263   4.332 -0.0698  0.0962  0.1010
 1822PAPC   C2B20448  25.225  20.046   4.698  0.3723 -0.0851 -0.1350
 1822PAPC   C3B20449  25.030  19.971   5.123 -0.0471  0.1610  0.0558
 1822PAPC   C4B20450  24.623  19.835   5.278  0.3248  0.0165  0.1764
 1823PAPC   NC320451   6.679   5.793   2.718  0.0818  0.0721  0.1616
 1823PAPC   PO420452   6.725   5.585   3.074 -0.4539 -0.0469  0.0269
 1823PAPC   GL120453   6.517   5.426   3.397  0.1269  0.0589  0.1959
 1823PAPC   GL220454   6.412   5.680   3.381 -0.4731  0.1929 -0.0277
 1823PAPC   C1A20455   6.755   5.426   3.668  0.1018  0.0802 -0.3448
 1823PAPC   D2A20456   6.993   5.418   3.993  0.1998  0.2030 -0.2535
 1823PAPC   D3A20457   7.339   5.658   3.912 -0.0098  0.0719  0.0242
 1823PAPC   D4A20458   7.497   6.080   3.991  0.2690 -0.1428  0.1226
 1823PAPC   C5A20459   7.654   6.431   3.664  0.1634 -0.0942  0.1633
 1823PAPC   C1B20460   6.330   5.661   3.718  0.0750  0.2444 -0.1965
 1823PAPC   C2B20461   6.351   5.724   4.111 -0.3125  0.1710 -0.2511
 1823PAPC   C3B20462   6.554   5.810   4.519  0.2591  0.0270 -0.1790
 1823PAPC   C4B20463   6.905   5.623   4.792  0.4397  0.0456  0.0632
 1824PAPC   NC320464  24.206  21.307   3.522  0.0275 -0.0255  0.3915
 1824PAPC   PO420465  23.941  21.006   3.458  0.2436  0.3283  0.4525
 1824PAPC   GL120466  23.893  21.066   3.836 -0.3600  0.0145  0.1046
 1824PAPC   GL220467  23.686  21.290   3.951  0.0198  0.2251  0.2597
 1824PAPC   C1A20468  24.089  20.768   4.014  0.6196  0.1262 -0.0722
 1824PAPC   D2A20469  24.357  20.684   4.317  0.0026  0.2361 -0.0900
 1824PAPC   D3A20470  24.727  20.501   4.518 -0.0196 -0.0147 -0.0049
 1824PAPC   D4A20471  25.148  20.625   4.684  0.1418  0.3535 -0.0887
 1824PAPC   C5A20472  25.091  20.998   5.054  0.0571 -0.1427  0.0886
 1824PAPC   C1B20473  23.732  21.543   4.189  0.1904  0.1726  0.2616
 1824PAPC   C2B20474  23.626  21.713   4.561  0.3186  0.1242 -0.0062
 1824PAPC   C3B20475  23.739  21.782   5.003  0.1566  0.2101  0.1293
 1824PAPC   C4B20476  23.822  21.678   5.468 -0.1419 -0.2556  0.0291
 1825PAPC   NC320477  12.058  20.880   3.390 -0.1185 -0.0124  0.2053
 1825PAPC   PO420478  11.643  20.798   3.435  0.1429  0.0314  0.1608
 1825PAPC   GL120479  11.583  21.035   3.814  0.3292  0.0635 -0.0481
 1825PAPC   GL220480  11.794  20.801   3.852 -0.3682 -0.2770  0.0357
 1825PAPC   C1A20481  11.605  21.073   4.193 -0.0605 -0.1801  0.2549
 1825PAPC   D2A20482  11.887  21.111   4.508 -0.4027 -0.0750  0.1835
 1825PAPC   D3A20483  12.035  20.905   4.875  0.1919 -0.0208  0.2210
 1825PAPC   D4A20484  12.151  20.910   5.222 -0.0966  0.1510 -0.0242
 1825PAPC   C5A20485  12.546  21.141   5.190 -0.2477 -0.0163 -0.2542
 1825PAPC   C1B20486  11.935  20.687   4.133 -0.2520 -0.0509  0.0661
 1825PAPC   C2B20487  11.879  20.512   4.491  0.0079  0.1759  0.2478
 1825PAPC   C3B20488  12.063  20.155   4.743 -0.1000  0.0995 -0.1798
 1825PAPC   C4B20489  12.430  19.865   4.814 -0.3693  0.0627  0.0489
 1826PAPC   NC320490  24.616  14.034   4.028 -0.0340 -0.2544  0.0699
 1826PAPC   PO420491  24.443  13.740   3.867 -0.0251 -0.1977  0.1407
 1826PAPC   GL120492  24.217  13.653   4.193  0.1608  0.2988 -0.3441
 1826PAPC   GL220493  24.275  13.882   4.325  0.1821 -0.0482 -0.2964
 1826PAPC   C1A20494  23.867  13.589   4.317  0.0837 -0.2063 -0.2644
 1826PAPC   D2A20495  23.748  13.483   4.667 -0.0787  0.1954 -0.0619
 1826PAPC   D3A20496  23.508  13.454   4.993  0.0875  0.0847 -0.1921
 1826PAPC   D4A20497  23.555  13.461   5.456  0.2706 -0.0078  0.2865
 1826PAPC   C5A20498  23.381  13.520   5.917 -0.2459  0.0639  0.2345
 1826PAPC   C1B20499  24.345  14.201   4.585  0.3371 -0.1951 -0.2663
 1826PAPC   C2B20500  24.235  14.455   4.897  0.1211  0.2268  0.1352
 1826PAPC   C3B20501  23.808  14.392   5.035  0.1139 -0.1040 -0.1794
 1826PAPC   C4B20502  23.363  14.376   5.137  0.1245 -0.0019  0.2998
 1827PAPC   NC320503  11.520  11.897   3.518 -0.1384  0.1587  0.2001
 1827PAPC   PO420504  11.419  11.531   3.530 -0.1514 -0.1623  0.0085
 1827PAPC   GL120505  11.546  11.409   3.816 -0.2078  0.0625 -0.0415
 1827PAPC   GL220506  11.298  11.165   3.844 -0.3338  0.1789 -0.0997
 1827PAPC   C1A20507  11.774  11.436   4.134  0.3375 -0.0045  0.0820
 1827PAPC   D2A20508  12.096  11.380   4.335 -0.0240  0.0244  0.1402
 1827PAPC   D3A20509  12.263  11.777   4.518 -0.1579  0.0166  0.2542
 1827PAPC   D4A20510  11.964  12.113   4.719  0.0533  0.0028  0.1577
 1827PAPC   C5A20511  11.636  12.300   4.959  0.0655  0.4753  0.0439
 1827PAPC   C1B20512  11.310  11.132   4.208  0.0171  0.2357 -0.0204
 1827PAPC   C2B20513  11.448  11.053   4.572  0.1003 -0.3814  0.0471
 1827PAPC   C3B20514  11.544  10.997   5.067  0.3256 -0.2227 -0.3555
 1827PAPC   C4B20515  11.787  10.987   5.485  0.3691 -0.0601 -0.0616
 1828PAPC   NC320516  13.622  25.948   4.112 -0.3255 -0.0279 -0.3016
 1828PAPC   PO420517  13.239  26.050   4.069  0.0158 -0.2803  0.0922
 1828PAPC   GL120518  13.224  26.170   4.437 -0.4231  0.0986 -0.1026
 1828PAPC   GL220519  13.436  26.021   4.549  0.4659  0.1809  0.4135
 1828PAPC   C1A20520  13.020  26.320   4.713 -0.1023  0.3743  0.4379
 1828PAPC   D2A20521  12.736  26.328   4.980  0.1117  0.1771 -0.0115
 1828PAPC   D3A20522  12.806  26.355   5.446  0.1172  0.2568 -0.2509
 1828PAPC   D4A20523  13.187  26.112   5.536  0.0627  0.3184  0.1432
 1828PAPC   C5A20524  13.523  26.444   5.630 -0.3491  0.0205 -0.2593
 1828PAPC   C1B20525  13.328  26.127   4.902 -0.2926  0.2947 -0.2452
 1828PAPC   C2B20526  13.208  26.419   5.146  0.0907  0.0283 -0.1367
 1828PAPC   C3B20527  13.397  26.834   5.375  0.0553  0.3758 -0.1295
 1828PAPC   C4B20528  13.610  27.134   5.707  0.3100 -0.1007  0.0433
 1829PAPC   NC320529   2.239  26.971   3.433  0.0055 -0.0647  0.2359
 1829PAPC   PO420530   2.381  27.323   3.331 -0.0877 -0.1378  0.1190
 1829PAPC   GL120531   2.297  27.439   3.795 -0.2711  0.2829 -0.0662
 1829PAPC   GL220532   2.036  27.316   3.763  0.2634  0.0195  0.1747
 1829PAPC   C1A20533   2.315  27.250   4.140  0.3773  0.1030 -0.0101
 1829PAPC   D2A20534   2.201  26.999   4.425  0.1694 -0.0580 -0.2668
 1829PAPC   D3A20535   2.089  27.287   4.730 -0.0925  0.1730  0.0905
 1829PAPC   D4A20536   1.890  27.103   5.055  0.3964  0.2708 -0.2780
 1829PAPC   C5A20537   1.510  26.800   5.117 -0.2051 -0.1163 -0.0352
 1829PAPC   C1B20538   1.826  27.368   4.093  0.0303  0.0545  0.0016
 1829PAPC   C2B20539   1.615  27.318   4.409  0.5821  0.1540  0.0513
 1829PAPC   C3B20540   1.492  27.304   4.889  0.0929 -0.0464 -0.0564
 1829PAPC   C4B20541   1.491  27.469   5.330 -0.0031  0.1559 -0.3356
 1830PAPC   NC320542   7.894  19.088   3.556  0.2029 -0.2256  0.4298
 1830PAPC   PO420543   7.698  19.325   3.329 -0.2083  0.0028  0.2351
 1830PAPC   GL120544   7.339  19.393   3.557  0.0362 -0.0065 -0.0881
 1830PAPC   GL220545   7.528  19.256   3.747 -0.0642  0.1915 -0.2743
 1830PAPC   C1A20546   7.100  19.582   3.864  0.0232 -0.1970  0.0100
 1830PAPC   D2A20547   7.107  19.917   4.157  0.3011 -0.0693  0.0302
 1830PAPC   D3A20548   6.915  20.149   4.468  0.2197 -0.0828 -0.1537
 1830PAPC   D4A20549   6.691  20.237   4.807  0.1942  0.1819 -0.1131
 1830PAPC   C5A20550   6.538  20.248   5.218 -0.1588  0.1096 -0.0139
 1830PAPC   C1B20551   7.409  19.170   4.055  0.0482  0.1435  0.0261
 1830PAPC   C2B20552   7.324  19.309   4.428  0.1946 -0.2525 -0.1280
 1830PAPC   C3B20553   7.320  19.528   4.881 -0.2449 -0.1904 -0.0710
 1830PAPC   C4B20554   7.410  19.783   5.272 -0.0362 -0.2203  0.0530
 1831PAPC   NC320555  23.596  19.477   3.337  0.0677 -0.1001 -0.1827
 1831PAPC   PO420556  23.398  19.221   3.535 -0.1494  0.1773  0.0426
 1831PAPC   GL120557  23.554  19.098   3.873 -0.2206 -0.0191  0.0038
 1831PAPC   GL220558  23.876  19.141   3.741  0.1390 -0.1939  0.1481
 1831PAPC   C1A20559  23.353  19.005   4.179  0.3009  0.2020  0.1633
 1831PAPC   D2A20560  23.255  18.780   4.526  0.2376 -0.1276  0.0259
 1831PAPC   D3A20561  23.023  18.428   4.732 -0.2769  0.1376  0.0307
 1831PAPC   D4A20562  23.167  17.964   4.664  0.1305  0.1149 -0.1004
 1831PAPC   C5A20563  23.570  17.867   4.931 -0.0095 -0.1552 -0.1098
 1831PAPC   C1B20564  24.136  19.237   3.981  0.2404 -0.0693 -0.2387
 1831PAPC   C2B20565  24.284  19.144   4.364 -0.1892  0.0510  0.0054
 1831PAPC   C3B20566  24.447  19.033   4.778 -0.1181 -0.0030 -0.1013
 1831PAPC   C4B20567  24.552  18.885   5.234 -0.3921  0.3390 -0.0837
 1832PAPC   NC320568  12.377  11.572   3.356  0.3785  0.4249 -0.0143
 1832PAPC   PO420569  12.667  11.808   3.459 -0.2763  0.1039  0.1202
 1832PAPC   GL120570  12.640  11.848   3.856  0.0191 -0.0760  0.1956
 1832PAPC   GL220571  12.364  11.749   3.897  0.2236  0.0485  0.2411
 1832PAPC   C1A20572  12.763  12.128   4.118  0.3582 -0.0312 -0.1011
 1832PAPC   D2A20573  12.659  12.198   4.489 -0.2669 -0.3129 -0.0842
 1832PAPC   D3A20574  12.479  12.127   4.861  0.0641 -0.0797  0.2005
 1832PAPC   D4A20575  12.351  11.985   5.243  0.1030  0.3022  0.0426
 1832PAPC   C5A20576  12.698  12.115   5.546 -0.1848  0.0528  0.2869
 1832PAPC   C1B20577  12.263  12.010   4.118  0.1380 -0.2087  0.0487
 1832PAPC   C2B20578  12.192  12.365   4.370  0.1102 -0.2430 -0.1581
 1832PAPC   C3B20579  12.078  12.829   4.255 -0.0079  0.2639 -0.0792
 1832PAPC   C4B20580  12.263  13.203   3.984 -0.2509 -0.0091  0.1499
 1833PAPC   NC320581   7.034   8.196   3.655  0.3005  0.2348  0.0795
 1833PAPC   PO420582   7.401   8.028   3.673  0.1966  0.0625  0.0362
 1833PAPC   GL120583   7.549   7.929   4.084  0.2076 -0.0841  0.0516
 1833PAPC   GL220584   7.613   7.702   3.929 -0.0312 -0.2330  0.1054
 1833PAPC   C1A20585   7.342   7.837   4.351  0.3348  0.2415  0.0105
 1833PAPC   D2A20586   7.238   7.540   4.640  0.1729 -0.2095  0.1829
 1833PAPC   D3A20587   6.956   7.258   4.813  0.1720 -0.1934 -0.1638
 1833PAPC   D4A20588   7.065   6.923   5.099 -0.0752  0.1257  0.0411
 1833PAPC   C5A20589   7.236   6.480   4.948  0.2086 -0.0062 -0.2476
 1833PAPC   C1B20590   7.858   7.618   4.127 -0.0932  0.5585 -0.1004
 1833PAPC   C2B20591   7.827   7.624   4.503 -0.0862  0.3954  0.3699
 1833PAPC   C3B20592   7.778   7.588   4.992 -0.3040  0.0385 -0.1583
 1833PAPC   C4B20593   7.790   7.468   5.502  0.2079 -0.2896 -0.0690
 1834PAPC   NC320594  15.147   9.450   3.298 -0.3763  0.0379  0.1244
 1834PAPC   PO420595  14.805   9.410   3.397 -0.0409 -0.0164  0.4026
 1834PAPC   GL120596  15.001   9.566   3.781 -0.4410  0.0964 -0.3194
 1834PAPC   GL220597  14.790   9.502   3.985  0.1213  0.4386 -0.0966
 1834PAPC   C1A20598  15.356   9.418   3.911  0.2430  0.1494  0.3234
 1834PAPC   D2A20599  15.548   9.054   3.972 -0.1139 -0.2010  0.0282
 1834PAPC   D3A20600  15.543   9.002   4.466  0.2277 -0.2972 -0.3082
 1834PAPC   D4A20601  15.121   9.117   4.628 -0.1471 -0.0622  0.0629
 1834PAPC   C5A20602  14.832   9.203   4.292  0.0172  0.2047 -0.2137
 1834PAPC   C1B20603  14.964   9.633   4.329 -0.2452 -0.1009  0.0015
 1834PAPC   C2B20604  14.961   9.708   4.744 -0.1738  0.1769  0.3205
 1834PAPC   C3B20605  14.759   9.701   5.183 -0.0818 -0.2423 -0.4223
 1834PAPC   C4B20606  14.640   9.857   5.673  0.2475 -0.1490  0.1571
 1835PAPC   NC320607   6.549   9.821   2.979  0.0462  0.3312 -0.2583
 1835PAPC   PO420608   6.861   9.683   3.215  0.1008  0.1200 -0.3150
 1835PAPC   GL120609   6.950   9.830   3.606  0.0663 -0.4067  0.1441
 1835PAPC   GL220610   7.207   9.926   3.680 -0.3561  0.0404 -0.0528
 1835PAPC   C1A20611   6.703  10.072   3.774 -0.0304  0.0255  0.2444
 1835PAPC   D2A20612   6.497  10.271   3.983  0.0093  0.2404 -0.1742
 1835PAPC   D3A20613   6.343  10.158   4.452 -0.1012 -0.0215  0.1200
 1835PAPC   D4A20614   6.232   9.858   4.751 -0.1224  0.0247 -0.0425
 1835PAPC   C5A20615   5.943   9.709   5.137  0.1809  0.2769  0.2363
 1835PAPC   C1B20616   7.071   9.914   4.016 -0.0092  0.1473  0.2325
 1835PAPC   C2B20617   7.019   9.820   4.383  0.0313 -0.0489 -0.0499
 1835PAPC   C3B20618   7.021   9.733   4.834  0.3192 -0.1691 -0.0761
 1835PAPC   C4B20619   7.189   9.610   5.299  0.0756  0.0550 -0.0050
 1836PAPC   NC320620  16.842  21.314   4.096  0.1647 -0.3020 -0.0584
 1836PAPC   PO420621  17.105  21.648   4.077 -0.0224  0.0211 -0.0031
 1836PAPC   GL120622  17.230  21.807   4.369  0.0420 -0.3760  0.1098
 1836PAPC   GL220623  17.019  21.946   4.497 -0.4887 -0.2925  0.1738
 1836PAPC   C1A20624  17.439  22.103   4.364  0.0566  0.1824 -0.1924
 1836PAPC   D2A20625  17.237  22.415   4.543  0.3109  0.0622 -0.1456
 1836PAPC   D3A20626  17.116  22.175   4.876  0.0767 -0.1119  0.0757
 1836PAPC   D4A20627  17.119  21.948   5.224 -0.0570  0.1361  0.1406
 1836PAPC   C5A20628  17.356  22.131   5.624 -0.2567 -0.1684  0.0112
 1836PAPC   C1B20629  16.727  21.955   4.666 -0.0787 -0.0118 -0.0924
 1836PAPC   C2B20630  16.509  21.927   5.023  0.0084  0.0053 -0.0092
 1836PAPC   C3B20631  16.475  22.130   5.472  0.3343  0.0220 -0.1008
 1836PAPC   C4B20632  16.310  22.331   5.890 -0.0903  0.3379 -0.1655
 1837PAPC   NC320633   1.488  19.821   3.936 -0.2256  0.0269 -0.2947
 1837PAPC   PO420634   1.775  19.591   3.802 -0.0228 -0.0726 -0.0797
 1837PAPC   GL120635   1.832  19.376   4.208 -0.0965  0.3037  0.2727
 1837PAPC   GL220636   1.734  19.677   4.354  0.1087  0.2052  0.4824
 1837PAPC   C1A20637   1.655  19.079   4.348  0.0850 -0.0624  0.1200
 1837PAPC   D2A20638   1.718  18.700   4.574  0.0434  0.0558  0.0059
 1837PAPC   D3A20639   2.074  18.547   4.828 -0.1447 -0.3891 -0.0818
 1837PAPC   D4A20640   2.341  18.524   5.123  0.3307  0.0018 -0.2487
 1837PAPC   C5A20641   2.267  18.646   5.621 -0.1342 -0.2579 -0.1374
 1837PAPC   C1B20642   1.785  19.751   4.728  0.0248 -0.0957 -0.1484
 1837PAPC   C2B20643   1.611  19.839   5.127 -0.0566 -0.4283  0.3127
 1837PAPC   C3B20644   1.500  19.928   5.678  0.2854  0.0486 -0.1435
 1837PAPC   C4B20645   1.653  19.889   6.135 -0.2379 -0.0006 -0.0430
 1838PAPC   NC320646  11.513  18.481   3.925 -0.4260  0.0869 -0.0807
 1838PAPC   PO420647  11.843  18.302   3.915  0.2226 -0.0020 -0.0144
 1838PAPC   GL120648  11.908  18.343   4.387  0.0598 -0.3147 -0.2468
 1838PAPC   GL220649  11.856  18.061   4.348  0.0141  0.0258  0.2220
 1838PAPC   C1A20650  12.090  18.419   4.725  0.1248 -0.1357 -0.1253
 1838PAPC   D2A20651  12.427  18.229   4.947  0.1583  0.0503 -0.2069
 1838PAPC   D3A20652  12.262  18.018   5.251  0.0365 -0.0162  0.1175
 1838PAPC   D4A20653  11.885  17.841   5.221  0.0203 -0.3297 -0.0322
 1838PAPC   C5A20654  11.794  18.113   4.836  0.1385 -0.0431 -0.2620
 1838PAPC   C1B20655  11.779  17.774   4.500 -0.0098 -0.3122 -0.0886
 1838PAPC   C2B20656  11.826  17.475   4.778  0.2031  0.1469 -0.2565
 1838PAPC   C3B20657  11.746  17.365   5.227  0.1029 -0.5499 -0.1216
 1838PAPC   C4B20658  11.438  17.440   5.511  0.2045 -0.3305  0.1934
 1839PAPC   NC320659   3.938  20.525   3.600  0.1097  0.2107 -0.0209
 1839PAPC   PO420660   3.976  20.134   3.529 -0.2623  0.1238  0.1850
 1839PAPC   GL120661   4.329  20.269   3.792  0.1815 -0.0166 -0.1282
 1839PAPC   GL220662   4.171  20.112   3.921  0.1048  0.1891  0.0305
 1839PAPC   C1A20663   4.671  20.149   3.880  0.1413  0.0085  0.0697
 1839PAPC   D2A20664   4.967  20.319   3.813 -0.1518 -0.1963 -0.2748
 1839PAPC   D3A20665   5.048  20.593   4.216 -0.0089 -0.0161  0.1249
 1839PAPC   D4A20666   4.861  20.758   4.623 -0.4838  0.0222 -0.0923
 1839PAPC   C5A20667   4.787  20.717   5.062 -0.2276  0.2658  0.0026
 1839PAPC   C1B20668   4.248  19.875   4.214 -0.1121 -0.0937 -0.0916
 1839PAPC   C2B20669   4.528  19.863   4.536  0.1804  0.0098 -0.1690
 1839PAPC   C3B20670   4.743  19.760   4.924  0.2813  0.3993  0.1917
 1839PAPC   C4B20671   5.149  19.779   5.185  0.0839 -0.1045 -0.2419
 1840PAPC   NC320672  10.569   2.423   3.465 -0.0231  0.1402  0.0671
 1840PAPC   PO420673  10.895   2.594   3.355 -0.1915  0.0297 -0.0404
 1840PAPC   GL120674  11.070   2.932   3.621 -0.2346  0.2508 -0.2788
 1840PAPC   GL220675  11.209   2.637   3.676  0.2038 -0.4622  0.0644
 1840PAPC   C1A20676  10.999   3.100   3.978  0.0448  0.4549  0.4805
 1840PAPC   D2A20677  11.064   3.157   4.363 -0.2944 -0.0171  0.1446
 1840PAPC   D3A20678  11.078   3.554   4.416  0.0344 -0.1192  0.0158
 1840PAPC   D4A20679  10.705   3.570   4.681  0.0893 -0.1393 -0.0164
 1840PAPC   C5A20680  10.835   3.166   4.934  0.3383 -0.0093  0.2346
 1840PAPC   C1B20681  11.259   2.527   4.037 -0.1870 -0.3583  0.0263
 1840PAPC   C2B20682  11.222   2.667   4.416  0.3291 -0.1156 -0.2259
 1840PAPC   C3B20683  11.260   2.929   4.851 -0.1318  0.1425 -0.1462
 1840PAPC   C4B20684  11.230   2.978   5.352  0.3048  0.6075 -0.0471
 1841PAPC   NC320685  16.013  15.942   3.724 -0.1289 -0.0472 -0.1102
 1841PAPC   PO420686  16.003  16.343   3.631  0.0255  0.0162 -0.1660
 1841PAPC   GL120687  15.828  16.489   4.046 -0.2304  0.1898 -0.0609
 1841PAPC   GL220688  15.936  16.219   4.086  0.0294 -0.0546 -0.2234
 1841PAPC   C1A20689  15.612  16.703   4.275 -0.1563 -0.3927  0.0026
 1841PAPC   D2A20690  15.287  16.856   4.363  0.3009  0.1914 -0.0455
 1841PAPC   D3A20691  14.800  16.750   4.326 -0.0651 -0.1022  0.1468
 1841PAPC   D4A20692  14.318  16.739   4.320 -0.2548 -0.0693  0.0402
 1841PAPC   C5A20693  14.252  16.811   3.817 -0.0085 -0.2904 -0.1283
 1841PAPC   C1B20694  15.841  16.087   4.401 -0.0226  0.2131 -0.1074
 1841PAPC   C2B20695  15.672  15.991   4.779  0.3488  0.3003 -0.3182
 1841PAPC   C3B20696  15.806  15.795   5.216 -0.0617  0.1990 -0.1370
 1841PAPC   C4B20697  15.908  15.737   5.708 -0.0123 -0.0802  0.1707
 1842PAPC   NC320698   0.992  18.613   3.833  0.1984 -0.0329  0.0057
 1842PAPC   PO420699   1.047  18.925   4.108 -0.0977  0.2629  0.0360
 1842PAPC   GL120700   1.051  18.755   4.461 -0.0159 -0.0346 -0.0594
 1842PAPC   GL220701   1.092  18.491   4.463  0.0438  0.2430 -0.2906
 1842PAPC   C1A20702   1.324  18.918   4.673 -0.0239 -0.3131  0.0470
 1842PAPC   D2A20703   1.599  19.004   5.015 -0.1622 -0.0507  0.4978
 1842PAPC   D3A20704   1.926  18.814   5.287 -0.0289 -0.0120 -0.0819
 1842PAPC   D4A20705   2.088  19.174   5.391  0.1113 -0.4074  0.5511
 1842PAPC   C5A20706   2.109  19.556   5.621  0.0035  0.1352  0.1400
 1842PAPC   C1B20707   1.292  18.436   4.762  0.0021  0.0221  0.2143
 1842PAPC   C2B20708   1.537  18.440   5.141  0.1182  0.1036  0.0548
 1842PAPC   C3B20709   1.631  18.480   5.621 -0.0042 -0.1095  0.0933
 1842PAPC   C4B20710   1.777  18.462   6.106  0.2836  0.2186  0.0915
 1843PAPC   NC320711   6.161  18.616   3.531  0.0644 -0.0536 -0.1444
 1843PAPC   PO420712   5.836  18.824   3.627 -0.0140  0.2657 -0.0779
 1843PAPC   GL120713   6.076  18.950   3.898 -0.3324  0.1972 -0.2095
 1843PAPC   GL220714   6.213  18.719   4.014  0.3337 -0.1556  0.2663
 1843PAPC   C1A20715   5.936  19.022   4.226 -0.0626 -0.5047  0.0198
 1843PAPC   D2A20716   5.995  19.240   4.527 -0.0152  0.1515  0.1123
 1843PAPC   D3A20717   5.943  19.532   4.821 -0.0532 -0.0875 -0.0610
 1843PAPC   D4A20718   5.501  19.437   4.819 -0.3045 -0.1782 -0.2056
 1843PAPC   C5A20719   5.421  19.557   4.353  0.1361  0.1837 -0.0251
 1843PAPC   C1B20720   6.156  18.633   4.391  0.2925  0.0152  0.3563
 1843PAPC   C2B20721   6.039  18.466   4.695 -0.1300 -0.2056  0.2919
 1843PAPC   C3B20722   5.679  18.277   4.974  0.0631 -0.1962  0.1815
 1843PAPC   C4B20723   5.192  18.113   5.093  0.2101 -0.2555 -0.1471
 1844PAPC   NC320724   2.148  19.174   3.746  0.0366 -0.2643  0.0539
 1844PAPC   PO420725   1.900  18.844   3.684 -0.3846 -0.1464 -0.1383
 1844PAPC   GL120726   1.893  18.807   4.124 -0.2125 -0.0347  0.1929
 1844PAPC   GL220727   2.011  18.466   4.158 -0.0838 -0.2334  0.5528
 1844PAPC   C1A20728   2.136  19.016   4.198 -0.1276 -0.4107  0.1189
 1844PAPC   D2A20729   2.287  19.403   4.174 -0.0571 -0.2849 -0.0923
 1844PAPC   D3A20730   2.538  19.762   4.324  0.3759 -0.1695  0.2459
 1844PAPC   D4A20731   2.654  20.233   4.369  0.3727 -0.0870  0.2143
 1844PAPC   C5A20732   2.524  20.277   4.793 -0.1038 -0.1199  0.0367
 1844PAPC   C1B20733   2.132  18.334   4.456  0.2554 -0.0836  0.1476
 1844PAPC   C2B20734   2.484  18.216   4.665 -0.1816 -0.4303 -0.0565
 1844PAPC   C3B20735   2.664  18.063   5.055 -0.1471  0.0546 -0.2738
 1844PAPC   C4B20736   2.902  17.823   5.398 -0.1130 -0.0760 -0.1938
 1845PAPC   NC320737   8.498   1.547   3.270 -0.0415  0.2350 -0.1551
 1845PAPC   PO420738   8.797   1.250   3.376  0.0545 -0.1669  0.0700
 1845PAPC   GL120739   8.621   0.980   3.714  0.2469 -0.1691 -0.1319
 1845PAPC   GL220740   8.898   1.008   3.774 -0.2361 -0.1101 -0.4420
 1845PAPC   C1A20741   8.386   0.903   3.994  0.3053  0.0557  0.1068
 1845PAPC   D2A20742   8.515   1.018   4.324  0.0783  0.3290  0.3621
 1845PAPC   D3A20743   8.245   0.701   4.513  0.2523 -0.0593  0.1980
 1845PAPC   D4A20744   8.354   0.958   4.788  0.0205 -0.0307  0.0316
 1845PAPC   C5A20745   8.393   1.040   5.263 -0.1072  0.1490 -0.2858
 1845PAPC   C1B20746   8.917   1.094   4.161 -0.1529  0.2077 -0.0678
 1845PAPC   C2B20747   8.932   1.152   4.571  0.2994  0.0768 -0.1608
 1845PAPC   C3B20748   8.823   1.220   4.978  0.0049 -0.0038 -0.0345
 1845PAPC   C4B20749   8.869   1.374   5.453 -0.1251  0.1555 -0.0684
 1846PAPC   NC320750  12.773   4.706   3.130  0.1080  0.1749 -0.1604
 1846PAPC   PO420751  12.577   5.058   3.220  0.0100 -0.4489 -0.1068
 1846PAPC   GL120752  12.690   5.213   3.524 -0.2522  0.2156  0.1375
 1846PAPC   GL220753  12.970   5.184   3.580 -0.3694  0.2729  0.2053
 1846PAPC   C1A20754  12.623   5.466   3.758 -0.0823 -0.1041 -0.0051
 1846PAPC   D2A20755  12.277   5.717   3.731 -0.3399 -0.0288  0.0368
 1846PAPC   D3A20756  11.965   5.868   4.073 -0.1861  0.1381 -0.0912
 1846PAPC   D4A20757  11.831   6.223   4.356  0.2524 -0.0281 -0.2096
 1846PAPC   C5A20758  11.809   5.898   4.663  0.1106  0.1371  0.1779
 1846PAPC   C1B20759  13.031   5.329   3.893 -0.1536 -0.0776  0.1925
 1846PAPC   C2B20760  13.177   5.476   4.248  0.1866  0.2057  0.0413
 1846PAPC   C3B20761  13.070   5.533   4.722 -0.0584 -0.1362 -0.1575
 1846PAPC   C4B20762  13.145   5.320   5.158  0.0085 -0.1123  0.1991
 1847PAPC   NC320763  23.591  23.016   3.369  0.0248  0.1208  0.0747
 1847PAPC   PO420764  23.670  23.394   3.524 -0.1238  0.0770 -0.3786
 1847PAPC   GL120765  23.761  23.483   3.997  0.1452 -0.2035  0.1320
 1847PAPC   GL220766  24.111  23.357   3.862 -0.2621  0.4166  0.1435
 1847PAPC   C1A20767  23.840  23.563   4.333  0.3422  0.2979  0.0417
 1847PAPC   D2A20768  23.943  23.885   4.567 -0.0979 -0.3604 -0.3312
 1847PAPC   D3A20769  24.078  23.797   4.954  0.1610  0.0592  0.0262
 1847PAPC   D4A20770  24.549  23.712   4.876  0.4996 -0.1273  0.1393
 1847PAPC   C5A20771  24.801  23.339   5.107  0.0836  0.3117  0.0157
 1847PAPC   C1B20772  24.263  23.104   4.059 -0.1129 -0.0932 -0.0713
 1847PAPC   C2B20773  24.185  22.866   4.380 -0.1394 -0.0035  0.0167
 1847PAPC   C3B20774  24.068  22.485   4.578 -0.1411 -0.0389  0.1341
 1847PAPC   C4B20775  24.175  22.121   4.920 -0.2081 -0.1603 -0.0801
 1848PAPC   NC320776   7.833  18.423   3.410  0.2259  0.1398  0.0650
 1848PAPC   PO420777   7.905  18.055   3.546 -0.1540  0.0362 -0.4286
 1848PAPC   GL120778   7.808  18.042   4.002 -0.0761 -0.0996  0.1508
 1848PAPC   GL220779   7.663  18.291   3.910 -0.3181 -0.2057  0.3344
 1848PAPC   C1A20780   7.597  17.954   4.306  0.3788 -0.2344  0.0891
 1848PAPC   D2A20781   7.491  17.615   4.494 -0.1501 -0.1223 -0.0211
 1848PAPC   D3A20782   7.188  17.628   4.880  0.0520  0.2229  0.1834
 1848PAPC   D4A20783   6.899  17.359   4.818 -0.0212 -0.2301 -0.3806
 1848PAPC   C5A20784   6.915  17.415   5.285 -0.2796 -0.0148  0.0860
 1848PAPC   C1B20785   7.468  18.479   4.158 -0.0364  0.0393  0.0521
 1848PAPC   C2B20786   7.527  18.834   4.391  0.2528  0.1498 -0.1626
 1848PAPC   C3B20787   7.446  19.079   4.827 -0.0499 -0.0044 -0.2579
 1848PAPC   C4B20788   7.522  19.216   5.298 -0.1794  0.3687  0.0880
 1849PAPC   NC320789  21.624   6.319   3.053  0.3158  0.2435  0.0294
 1849PAPC   PO420790  21.962   6.153   3.099  0.0125 -0.3515  0.0641
 1849PAPC   GL120791  22.017   6.251   3.512 -0.0334 -0.3118  0.0697
 1849PAPC   GL220792  21.755   6.199   3.588 -0.0297 -0.0611 -0.3284
 1849PAPC   C1A20793  22.217   6.481   3.690 -0.2099  0.1002 -0.0393
 1849PAPC   D2A20794  22.545   6.795   3.813  0.0716  0.3598  0.0521
 1849PAPC   D3A20795  22.322   7.160   3.793  0.0486  0.3372 -0.1597
 1849PAPC   D4A20796  22.214   7.078   4.241 -0.1400 -0.1448  0.1137
 1849PAPC   C5A20797  22.236   7.343   4.626  0.1568  0.1296  0.2555
 1849PAPC   C1B20798  21.534   6.236   3.949  0.1426  0.0849  0.2147
 1849PAPC   C2B20799  21.290   6.373   4.258 -0.0875  0.0702  0.0361
 1849PAPC   C3B20800  21.098   6.354   4.686 -0.0845  0.2113  0.0363
 1849PAPC   C4B20801  20.983   6.665   4.991 -0.0839 -0.0793 -0.2432
 1850PAPC   NC320802  12.040  16.349   3.430 -0.1724  0.1017 -0.0321
 1850PAPC   PO420803  11.699  16.196   3.399  0.1793  0.1140  0.0549
 1850PAPC   GL120804  11.723  16.068   3.721  0.0401  0.0443  0.2538
 1850PAPC   GL220805  11.877  16.296   3.880  0.0525 -0.1762  0.0023
 1850PAPC   C1A20806  11.472  16.047   3.975  0.2343 -0.0462 -0.0195
 1850PAPC   D2A20807  11.078  16.166   4.056  0.1223 -0.1361  0.1809
 1850PAPC   D3A20808  10.905  16.388   4.434  0.1509 -0.4802 -0.1255
 1850PAPC   D4A20809  10.698  16.427   4.820 -0.0518 -0.3663 -0.0058
 1850PAPC   C5A20810  10.370  16.193   5.101 -0.1658  0.4744 -0.1418
 1850PAPC   C1B20811  11.768  16.561   4.109  0.1552  0.3475  0.3596
 1850PAPC   C2B20812  11.777  16.622   4.523  0.0661  0.0953  0.0818
 1850PAPC   C3B20813  11.936  16.559   4.945 -0.2504  0.0646 -0.0058
 1850PAPC   C4B20814  12.183  16.467   5.425 -0.3680 -0.0598  0.2142
 1851PAPC   NC320815  17.722   7.841   2.987  0.1859  0.1358 -0.1649
 1851PAPC   PO420816  18.108   7.812   3.016 -0.3747 -0.0772  0.1811
 1851PAPC   GL120817  18.390   7.902   3.352  0.2533 -0.1018  0.2326
 1851PAPC   GL220818  18.611   7.803   3.340  0.1075 -0.4642  0.2899
 1851PAPC   C1A20819  18.330   8.090   3.697 -0.2841  0.2599 -0.0625
 1851PAPC   D2A20820  18.308   8.355   3.971  0.2755 -0.1045 -0.1657
 1851PAPC   D3A20821  18.006   8.313   4.360  0.0119  0.1454  0.4212
 1851PAPC   D4A20822  18.055   8.619   4.688 -0.0904  0.0482  0.0294
 1851PAPC   C5A20823  17.724   8.626   5.058  0.1065 -0.0615  0.0448
 1851PAPC   C1B20824  18.760   7.817   3.699 -0.1585 -0.1182 -0.2031
 1851PAPC   C2B20825  18.725   7.968   4.104 -0.0204 -0.1117  0.1934
 1851PAPC   C3B20826  18.487   8.215   4.509  0.0027  0.1663  0.2193
 1851PAPC   C4B20827  18.426   8.357   4.943  0.0532 -0.2267 -0.1902
 1852PAPC   NC320828  19.639  12.650   3.442  0.2661 -0.1468  0.1357
 1852PAPC   PO420829  19.936  12.935   3.465  0.0206 -0.3361  0.4924
 1852PAPC   GL120830  19.924  13.207   3.794  0.1794 -0.0838 -0.1657
 1852PAPC   GL220831  20.174  13.126   3.838 -0.0974  0.0097  0.0689
 1852PAPC   C1A20832  19.801  13.333   4.153 -0.0102  0.1211 -0.2353
 1852PAPC   D2A20833  19.613  13.675   4.280 -0.0788 -0.1979  0.1404
 1852PAPC   D3A20834  19.266  13.672   4.577  0.2669 -0.2403 -0.1961
 1852PAPC   D4A20835  19.230  13.388   4.967 -0.1969  0.0414 -0.2203
 1852PAPC   C5A20836  19.008  13.030   4.767  0.0222  0.1101 -0.1108
 1852PAPC   C1B20837  20.338  13.036   4.182  0.2778 -0.2474  0.1765
 1852PAPC   C2B20838  20.400  12.914   4.514 -0.1863  0.0435 -0.0576
 1852PAPC   C3B20839  20.713  12.994   4.931 -0.1403 -0.1087 -0.2613
 1852PAPC   C4B20840  20.696  12.679   5.356 -0.1333 -0.2346  0.1812
 1853PAPC   NC320841  18.258  20.872   3.989  0.0878  0.0533  0.0896
 1853PAPC   PO420842  18.619  20.826   3.824 -0.0637  0.0565  0.2903
 1853PAPC   GL120843  18.925  20.765   4.121  0.0926  0.3716 -0.1666
 1853PAPC   GL220844  19.057  20.474   4.174  0.0255  0.4491 -0.2404
 1853PAPC   C1A20845  18.843  20.888   4.426 -0.1992 -0.2950  0.2200
 1853PAPC   D2A20846  18.740  20.804   4.806 -0.1258  0.0011 -0.2256
 1853PAPC   D3A20847  18.514  20.680   5.150  0.2208 -0.2886 -0.2612
 1853PAPC   D4A20848  18.514  20.833   5.579 -0.0272  0.2722  0.0142
 1853PAPC   C5A20849  18.351  21.236   5.724  0.2469 -0.2525 -0.1120
 1853PAPC   C1B20850  18.976  20.452   4.531  0.0739 -0.2442  0.0325
 1853PAPC   C2B20851  18.888  20.337   4.945  0.0855 -0.3268  0.2197
 1853PAPC   C3B20852  18.807  20.130   5.388  0.1058 -0.2269 -0.1358
 1853PAPC   C4B20853  18.819  19.940   5.804 -0.0669  0.0359 -0.0294
 1854PAPC   NC320854   1.778  14.026   3.384  0.1210 -0.2150  0.0769
 1854PAPC   PO420855   1.414  14.140   3.484  0.4267 -0.1234  0.1544
 1854PAPC   GL120856   1.333  14.304   3.813  0.3141 -0.4284  0.1204
 1854PAPC   GL220857   1.054  14.253   3.810  0.1177  0.2616 -0.0651
 1854PAPC   C1A20858   1.380  14.502   4.124  0.0043 -0.1317 -0.1558
 1854PAPC   D2A20859   1.596  14.798   4.272 -0.0596 -0.0226 -0.0924
 1854PAPC   D3A20860   1.686  14.591   4.687 -0.2359 -0.0812  0.1740
 1854PAPC   D4A20861   1.491  14.184   4.807  0.1780 -0.1134  0.1770
 1854PAPC   C5A20862   1.406  13.734   4.807 -0.0771 -0.2192  0.2154
 1854PAPC   C1B20863   1.022  14.103   4.108 -0.0795  0.1680  0.1832
 1854PAPC   C2B20864   1.089  14.220   4.467 -0.1579  0.3543 -0.2588
 1854PAPC   C3B20865   1.026  14.119   4.917 -0.0543 -0.0634 -0.0389
 1854PAPC   C4B20866   1.114  14.306   5.364  0.2101 -0.1567  0.2200
 1855PAPC   NC320867  16.916   7.952   3.186  0.1131 -0.1088  0.0331
 1855PAPC   PO420868  17.235   7.718   3.065  0.1391 -0.1037  0.3247
 1855PAPC   GL120869  17.336   7.347   3.363  0.0985 -0.0788  0.1501
 1855PAPC   GL220870  17.574   7.360   3.358 -0.0471 -0.5381 -0.2370
 1855PAPC   C1A20871  17.226   7.444   3.757 -0.1263  0.3221  0.4719
 1855PAPC   D2A20872  17.320   7.208   3.991 -0.1692  0.0782 -0.3236
 1855PAPC   D3A20873  16.850   7.193   4.058  0.1012  0.0412 -0.1474
 1855PAPC   D4A20874  16.632   7.575   4.037  0.0985  0.0544 -0.2678
 1855PAPC   C5A20875  16.261   7.330   4.243  0.0288 -0.0120 -0.1177
 1855PAPC   C1B20876  17.656   7.403   3.680  0.3955 -0.0184  0.0435
 1855PAPC   C2B20877  17.703   7.608   4.042 -0.0916 -0.0234 -0.3817
 1855PAPC   C3B20878  17.754   7.907   4.439 -0.0903  0.1134 -0.2468
 1855PAPC   C4B20879  17.900   8.139   4.899  0.2142  0.0149 -0.1155
 1856PAPC   NC320880  20.904  22.659   3.620 -0.2413 -0.2992  0.0348
 1856PAPC   PO420881  21.194  22.991   3.566  0.2810 -0.1345 -0.2515
 1856PAPC   GL120882  21.218  23.106   3.974  0.0183 -0.3271  0.0611
 1856PAPC   GL220883  21.139  22.839   4.138  0.1663  0.3636 -0.1606
 1856PAPC   C1A20884  21.102  23.389   4.087 -0.1898 -0.1213  0.3167
 1856PAPC   D2A20885  20.795  23.143   4.149 -0.1756  0.0598 -0.4152
 1856PAPC   D3A20886  20.351  23.148   4.163 -0.0825  0.1378 -0.1780
 1856PAPC   D4A20887  20.067  22.987   4.451 -0.2192 -0.1363 -0.0146
 1856PAPC   C5A20888  19.549  22.977   4.305 -0.1948 -0.1990 -0.2120
 1856PAPC   C1B20889  21.474  22.858   4.351  0.1251  0.2275  0.0841
 1856PAPC   C2B20890  21.730  22.954   4.656 -0.0581  0.1739 -0.1951
 1856PAPC   C3B20891  21.930  22.970   5.105  0.1232  0.0719  0.0913
 1856PAPC   C4B20892  21.891  23.093   5.585 -0.0967 -0.1756  0.0702
 1857PAPC   NC320893   0.911   9.282   3.648 -0.1106 -0.0831  0.1866
 1857PAPC   PO420894   0.919   9.388   4.019 -0.0370 -0.1776 -0.0467
 1857PAPC   GL120895   0.991   9.827   4.078 -0.1386 -0.0393  0.1427
 1857PAPC   GL220896   1.268   9.764   4.147  0.0019  0.3347 -0.0517
 1857PAPC   C1A20897   0.847  10.108   4.219 -0.5399  0.0423  0.3342
 1857PAPC   D2A20898   0.596  10.129   4.464  0.0758  0.4093  0.0303
 1857PAPC   D3A20899   0.178  10.100   4.250  0.2593 -0.0893  0.1062
 1857PAPC   D4A20900  -0.022  10.164   4.640 -0.0274 -0.1386  0.2185
 1857PAPC   C5A20901  -0.146  10.184   5.019 -0.1157 -0.2202 -0.0258
 1857PAPC   C1B20902   1.494   9.536   4.329 -0.1288  0.1856  0.0409
 1857PAPC   C2B20903   1.734   9.383   4.645  0.1161  0.1365 -0.2092
 1857PAPC   C3B20904   1.881   9.217   5.082 -0.1753 -0.2472 -0.2487
 1857PAPC   C4B20905   2.123   9.244   5.536  0.3486 -0.0185 -0.0149
 1858PAPC   NC320906   3.463   7.350   3.300 -0.2233  0.0491  0.1529
 1858PAPC   PO420907   3.649   7.718   3.397 -0.4396 -0.1977  0.2818
 1858PAPC   GL120908   3.819   7.890   3.801 -0.1978 -0.0821  0.0334
 1858PAPC   GL220909   3.536   7.884   3.883  0.2362 -0.1948 -0.1403
 1858PAPC   C1A20910   4.003   8.041   4.092  0.1406 -0.2687 -0.0785
 1858PAPC   D2A20911   4.155   7.791   4.395  0.0626 -0.0568 -0.0883
 1858PAPC   D3A20912   4.172   7.844   4.843 -0.0336  0.2675 -0.2086
 1858PAPC   D4A20913   4.055   7.468   5.120  0.0098  0.1473 -0.2373
 1858PAPC   C5A20914   4.380   7.257   4.758  0.1167 -0.0637 -0.1816
 1858PAPC   C1B20915   3.631   7.988   4.240 -0.3132 -0.0784  0.0027
 1858PAPC   C2B20916   3.712   8.113   4.635 -0.1410  0.1263  0.0199
 1858PAPC   C3B20917   3.685   7.926   5.035 -0.2554 -0.0729 -0.3211
 1858PAPC   C4B20918   3.722   7.814   5.544  0.1115 -0.1882  0.0923
 1859PAPC   NC320919   2.900  24.747   3.943 -0.1132 -0.3338 -0.1308
 1859PAPC   PO420920   2.583  24.980   3.851  0.0733 -0.0672 -0.2887
 1859PAPC   GL120921   2.667  25.336   4.129  0.4538 -0.0461 -0.3078
 1859PAPC   GL220922   2.385  25.402   4.114  0.3878  0.0192 -0.0521
 1859PAPC   C1A20923   2.644  25.228   4.467  0.0569 -0.1036 -0.0340
 1859PAPC   D2A20924   2.388  24.976   4.337 -0.1550  0.1228 -0.1275
 1859PAPC   D3A20925   2.275  24.782   4.695  0.0167 -0.2154 -0.0820
 1859PAPC   D4A20926   2.119  24.634   5.099 -0.3414  0.1246 -0.0696
 1859PAPC   C5A20927   1.813  24.328   5.272 -0.1477  0.1582  0.1155
 1859PAPC   C1B20928   2.233  25.352   4.505  0.1022 -0.1528  0.0371
 1859PAPC   C2B20929   2.171  25.530   4.892 -0.2213 -0.1110 -0.0616
 1859PAPC   C3B20930   2.079  25.659   5.340 -0.0906  0.0332 -0.2694
 1859PAPC   C4B20931   1.934  25.914   5.737 -0.0479  0.4830  0.0794
 1860PAPC   NC320932  14.364  14.175   3.132 -0.1021  0.1476  0.0867
 1860PAPC   PO420933  14.376  14.261   3.557 -0.2029  0.0137  0.0613
 1860PAPC   GL120934  14.321  14.029   3.919 -0.0282  0.0973  0.0052
 1860PAPC   GL220935  14.322  13.807   3.807 -0.1328 -0.2627  0.0976
 1860PAPC   C1A20936  14.396  14.079   4.232 -0.2844 -0.0065  0.2353
 1860PAPC   D2A20937  14.489  14.232   4.608 -0.3471 -0.1190 -0.0447
 1860PAPC   D3A20938  14.617  14.567   4.961 -0.0961 -0.0625  0.0197
 1860PAPC   D4A20939  14.260  14.602   5.210 -0.1571  0.0913 -0.1358
 1860PAPC   C5A20940  14.067  14.315   4.912 -0.0317 -0.0138  0.1811
 1860PAPC   C1B20941  14.213  13.665   4.114 -0.1738 -0.4081  0.3737
 1860PAPC   C2B20942  14.365  13.678   4.487  0.0368 -0.0551  0.1528
 1860PAPC   C3B20943  14.743  13.841   4.738 -0.0224  0.2604  0.0736
 1860PAPC   C4B20944  15.122  13.922   5.010  0.0772 -0.0431  0.0603
 1861PAPC   NC320945   7.340  13.527   2.888 -0.1566 -0.0293 -0.0969
 1861PAPC   PO420946   7.056  13.302   2.982  0.0433 -0.1615 -0.0697
 1861PAPC   GL120947   7.097  13.206   3.419 -0.0152  0.0852  0.2366
 1861PAPC   GL220948   7.340  13.368   3.415  0.2400  0.0756 -0.3756
 1861PAPC   C1A20949   6.976  13.172   3.759 -0.1470 -0.0207  0.0180
 1861PAPC   D2A20950   6.634  13.228   3.945 -0.1473 -0.1121 -0.0950
 1861PAPC   D3A20951   6.681  13.507   4.276 -0.3991 -0.1302 -0.1623
 1861PAPC   D4A20952   6.484  13.841   4.386  0.1379  0.0504 -0.0839
 1861PAPC   C5A20953   6.429  14.193   4.673 -0.1312  0.2195 -0.0775
 1861PAPC   C1B20954   7.393  13.410   3.757  0.1189 -0.6306 -0.3116
 1861PAPC   C2B20955   7.243  13.314   4.118 -0.0563 -0.2932 -0.0330
 1861PAPC   C3B20956   7.190  13.455   4.616 -0.1330  0.1490 -0.0160
 1861PAPC   C4B20957   6.831  13.792   4.696 -0.2796 -0.0778 -0.3257
 1862PAPC   NC320958  16.465   3.226   3.894  0.1532 -0.1761  0.1726
 1862PAPC   PO420959  16.790   3.301   3.672  0.0428  0.1450  0.0573
 1862PAPC   GL120960  16.918   3.410   4.045  0.0159 -0.2061 -0.4841
 1862PAPC   GL220961  17.034   3.117   4.098 -0.0311  0.4461  0.1417
 1862PAPC   C1A20962  16.686   3.332   4.281  0.2009  0.1320 -0.1267
 1862PAPC   D2A20963  16.434   3.092   4.496 -0.0001 -0.1296 -0.2892
 1862PAPC   D3A20964  16.217   2.841   4.854  0.2306  0.3511 -0.1169
 1862PAPC   D4A20965  16.369   2.504   5.056 -0.0606  0.1110 -0.2999
 1862PAPC   C5A20966  16.583   2.459   5.451 -0.1567  0.2646 -0.0208
 1862PAPC   C1B20967  17.408   2.997   4.236  0.0318  0.0469  0.2313
 1862PAPC   C2B20968  17.646   2.960   4.591  0.0608 -0.0576 -0.2531
 1862PAPC   C3B20969  17.455   2.727   4.961 -0.0716 -0.1390  0.1591
 1862PAPC   C4B20970  17.427   2.320   5.234  0.4284  0.0052 -0.1679
 1863PAPC   NC320971  10.191   9.001   3.277 -0.0422  0.0856 -0.0494
 1863PAPC   PO420972  10.057   8.663   3.481 -0.0598 -0.0782  0.1245
 1863PAPC   GL120973  10.257   8.633   3.843  0.0553 -0.1212 -0.0832
 1863PAPC   GL220974  10.408   8.430   3.910  0.1471  0.0907  0.1519
 1863PAPC   C1A20975  10.021   8.643   4.092 -0.0086  0.2821  0.0527
 1863PAPC   D2A20976   9.714   8.444   4.200 -0.1879  0.2271  0.1778
 1863PAPC   D3A20977   9.771   8.270   4.588  0.1268 -0.0696  0.0030
 1863PAPC   D4A20978   9.738   8.192   5.076 -0.2650 -0.1050 -0.1117
 1863PAPC   C5A20979  10.172   8.251   5.038 -0.0507 -0.0333  0.2261
 1863PAPC   C1B20980  10.665   8.561   4.108 -0.1015  0.2871  0.1515
 1863PAPC   C2B20981  10.920   8.685   4.443 -0.3125  0.0743  0.0906
 1863PAPC   C3B20982  10.941   9.074   4.850  0.1562  0.0598  0.0880
 1863PAPC   C4B20983  10.625   9.302   5.102  0.3952 -0.2074  0.3572
 1864PAPC   NC320984   7.774   6.531   3.098 -0.2667  0.0682 -0.1209
 1864PAPC   PO420985   7.512   6.261   3.060  0.2077 -0.2659 -0.1681
 1864PAPC   GL120986   7.415   6.013   3.400 -0.0846  0.2530 -0.2405
 1864PAPC   GL220987   7.593   5.835   3.356 -0.1781 -0.0939  0.5162
 1864PAPC   C1A20988   7.068   5.920   3.506  0.3118 -0.0450 -0.2249
 1864PAPC   D2A20989   6.718   5.888   3.775 -0.2898 -0.4014  0.1379
 1864PAPC   D3A20990   6.962   6.050   4.165  0.4024  0.1260 -0.0619
 1864PAPC   D4A20991   7.145   5.764   4.415 -0.0442 -0.0851 -0.0744
 1864PAPC   C5A20992   7.064   5.324   4.466 -0.1050  0.1732  0.2486
 1864PAPC   C1B20993   7.887   6.005   3.554  0.2256  0.1169 -0.0163
 1864PAPC   C2B20994   8.147   5.969   3.900  0.2989  0.5738  0.2197
 1864PAPC   C3B20995   8.257   5.930   4.301  0.0658 -0.0322  0.1735
 1864PAPC   C4B20996   8.152   5.820   4.712  0.1248 -0.2067  0.1577
 1865PAPC   NC320997  11.419  14.953   3.179 -0.0449 -0.1445  0.2602
 1865PAPC   PO420998  11.697  15.074   3.459  0.4515  0.0700 -0.0071
 1865PAPC   GL120999  11.619  15.005   3.907 -0.3739  0.3187  0.0834
 1865PAPC   GL221000  11.545  15.287   3.976 -0.0087  0.1173  0.3002
 1865PAPC   C1A21001  11.398  14.905   4.172  0.2863 -0.0472 -0.0326
 1865PAPC   D2A21002  11.272  15.111   4.461  0.1291 -0.1345 -0.2770
 1865PAPC   D3A21003  11.058  15.364   4.708 -0.2654  0.2797  0.2074
 1865PAPC   D4A21004  10.928  15.724   5.008 -0.4668 -0.2152 -0.2587
 1865PAPC   C5A21005  10.856  16.124   5.168  0.0593 -0.2539 -0.1953
 1865PAPC   C1B21006  11.439  15.527   4.248 -0.0973 -0.1428  0.4038
 1865PAPC   C2B21007  11.295  15.777   4.504 -0.1190 -0.0991 -0.0108
 1865PAPC   C3B21008  11.221  16.158   4.837  0.1204 -0.0568  0.1853
 1865PAPC   C4B21009  11.239  16.623   4.791  0.1730  0.3273 -0.2142
 1866PAPC   NC321010  17.907  12.698   2.802  0.1509  0.1994 -0.0446
 1866PAPC   PO421011  17.757  12.608   3.145  0.2984 -0.1089  0.0343
 1866PAPC   GL121012  17.659  12.658   3.540 -0.0577 -0.1596 -0.2069
 1866PAPC   GL221013  17.551  12.951   3.543 -0.2174  0.1186  0.2753
 1866PAPC   C1A21014  17.786  12.507   3.841  0.3535  0.2906  0.3847
 1866PAPC   D2A21015  17.780  12.498   4.224  0.1542 -0.3232 -0.2254
 1866PAPC   D3A21016  17.536  12.144   4.144  0.0113 -0.0630 -0.0790
 1866PAPC   D4A21017  17.143  12.404   4.197 -0.1222  0.0783 -0.2558
 1866PAPC   C5A21018  17.385  12.618   4.583  0.0589  0.0038 -0.0866
 1866PAPC   C1B21019  17.675  13.207   3.819 -0.0838 -0.3310 -0.0256
 1866PAPC   C2B21020  17.693  13.476   4.129 -0.0414  0.1919 -0.0910
 1866PAPC   C3B21021  17.537  13.775   4.456  0.0207  0.1317  0.0368
 1866PAPC   C4B21022  17.345  13.698   4.914 -0.2872  0.0718  0.1998
 1867PAPC   NC321023   0.128  26.045   2.945 -0.2425  0.0336  0.1282
 1867PAPC   PO421024  -0.158  26.025   3.224 -0.3264 -0.0199  0.1352
 1867PAPC   GL121025  -0.157  26.032   3.691 -0.0789 -0.2936  0.1491
 1867PAPC   GL221026  -0.078  25.795   3.659  0.0832 -0.1629 -0.2408
 1867PAPC   C1A21027  -0.224  26.145   4.097  0.0197  0.0410 -0.0288
 1867PAPC   D2A21028  -0.409  26.208   4.439 -0.2404  0.0550  0.2723
 1867PAPC   D3A21029  -0.373  26.364   4.865 -0.0043  0.1258 -0.1029
 1867PAPC   D4A21030  -0.672  26.309   5.201 -0.3741 -0.2160  0.2110
 1867PAPC   C5A21031  -1.014  25.981   5.378 -0.0154 -0.1987 -0.2125
 1867PAPC   C1B21032  -0.185  25.660   3.996 -0.0302 -0.1814  0.4456
 1867PAPC   C2B21033  -0.186  25.770   4.433 -0.1763  0.3113  0.1912
 1867PAPC   C3B21034  -0.392  25.834   4.851 -0.2522 -0.1631 -0.0624
 1867PAPC   C4B21035  -0.463  25.884   5.355 -0.4875 -0.1062  0.2926
 1868PAPC   NC321036  18.952  22.643   3.920  0.1048 -0.0274 -0.0677
 1868PAPC   PO421037  18.586  22.572   3.703 -0.4002  0.0896 -0.3173
 1868PAPC   GL121038  18.268  22.536   4.039 -0.0641 -0.0338 -0.4646
 1868PAPC   GL221039  18.512  22.603   4.224  0.3381 -0.2769  0.3335
 1868PAPC   C1A21040  18.130  22.284   4.259 -0.1164  0.3861 -0.0132
 1868PAPC   D2A21041  18.349  22.101   4.538 -0.0250  0.2514 -0.2205
 1868PAPC   D3A21042  18.517  21.788   4.756  0.0146 -0.3351 -0.0351
 1868PAPC   D4A21043  18.477  21.589   5.164  0.1550  0.0816 -0.3114
 1868PAPC   C5A21044  18.834  21.496   5.428 -0.1368  0.3109  0.2682
 1868PAPC   C1B21045  18.679  22.721   4.530 -0.0849  0.4260  0.3449
 1868PAPC   C2B21046  18.793  22.944   4.868  0.0545  0.1576 -0.3684
 1868PAPC   C3B21047  18.558  23.306   5.268  0.2560 -0.0016 -0.0682
 1868PAPC   C4B21048  18.371  23.674   5.517 -0.1546 -0.0456 -0.0051
 1869PAPC   NC321049   8.814  10.812   2.979 -0.2434 -0.0987  0.0809
 1869PAPC   PO421050   8.558  10.607   3.198 -0.1192  0.4176 -0.1017
 1869PAPC   GL121051   8.715  10.355   3.496 -0.3259 -0.1376  0.1806
 1869PAPC   GL221052   8.742  10.480   3.735  0.0701  0.1239  0.1996
 1869PAPC   C1A21053   8.563  10.021   3.575 -0.0865 -0.1553  0.1252
 1869PAPC   D2A21054   8.580   9.657   3.682  0.0637  0.0342 -0.0281
 1869PAPC   D3A21055   8.733   9.662   4.073  0.1853 -0.3049 -0.3058
 1869PAPC   D4A21056   9.008  10.044   3.928  0.1653  0.3752  0.0132
 1869PAPC   C5A21057   9.334  10.264   4.200  0.2537  0.0526 -0.0447
 1869PAPC   C1B21058   8.604  10.265   3.972 -0.2631  0.2015  0.3742
 1869PAPC   C2B21059   8.750  10.086   4.360  0.4556  0.3496  0.3906
 1869PAPC   C3B21060   8.827   9.739   4.687  0.4014  0.1965 -0.0618
 1869PAPC   C4B21061   8.872   9.292   4.733  0.1124  0.0093  0.1134
 1870PAPC   NC321062   6.328   2.772   3.238  0.2565 -0.1535 -0.3706
 1870PAPC   PO421063   6.107   2.768   3.598  0.2191  0.0134  0.2035
 1870PAPC   GL121064   5.838   3.054   3.845 -0.1377  0.2886  0.0145
 1870PAPC   GL221065   5.806   3.232   3.555 -0.3433 -0.2149  0.0409
 1870PAPC   C1A21066   6.041   3.167   4.134 -0.3370 -0.3390  0.1066
 1870PAPC   D2A21067   6.437   3.211   3.977 -0.1341 -0.1476 -0.2995
 1870PAPC   D3A21068   6.734   3.352   4.265 -0.3281 -0.2965 -0.3062
 1870PAPC   D4A21069   6.903   2.945   4.505 -0.2722 -0.2058  0.3184
 1870PAPC   C5A21070   6.880   2.500   4.395 -0.0728  0.2521  0.3563
 1870PAPC   C1B21071   5.707   3.501   3.788  0.3436 -0.1865 -0.3732
 1870PAPC   C2B21072   5.524   3.765   4.057  0.1927  0.1515  0.2730
 1870PAPC   C3B21073   5.417   4.169   4.353  0.0073 -0.1430 -0.0905
 1870PAPC   C4B21074   5.612   4.246   4.831 -0.1574 -0.1504 -0.4060
 1871PAPC   NC321075  18.049  13.753   2.683  0.1481 -0.0306 -0.0462
 1871PAPC   PO421076  17.681  13.595   2.757 -0.0270 -0.1076 -0.0041
 1871PAPC   GL121077  17.700  13.565   3.205  0.0101  0.0450  0.4172
 1871PAPC   GL221078  17.430  13.329   3.274  0.3566 -0.1887 -0.2043
 1871PAPC   C1A21079  17.861  13.539   3.501  0.1070 -0.1542 -0.1276
 1871PAPC   D2A21080  17.825  13.805   3.799  0.1565  0.0548  0.0094
 1871PAPC   D3A21081  17.914  14.253   3.923 -0.2709  0.1764  0.1727
 1871PAPC   D4A21082  18.035  14.629   3.949 -0.1789  0.0940 -0.0725
 1871PAPC   C5A21083  17.778  15.003   3.980  0.0227 -0.0662  0.1157
 1871PAPC   C1B21084  17.301  13.399   3.595 -0.0472  0.0687  0.0465
 1871PAPC   C2B21085  17.211  13.151   3.908 -0.0983 -0.0484  0.1930
 1871PAPC   C3B21086  17.011  12.870   4.280  0.1076  0.2945  0.4238
 1871PAPC   C4B21087  16.856  12.530   4.635 -0.0528 -0.1387 -0.2781
 1872PAPC   NC321088   7.146  22.988   4.036  0.2747 -0.3198 -0.1017
 1872PAPC   PO421089   7.436  22.764   4.028 -0.3682  0.0019 -0.0311
 1872PAPC   GL121090   7.288  22.520   4.349 -0.0665 -0.3538 -0.1022
 1872PAPC   GL221091   7.008  22.578   4.306 -0.0802  0.2988  0.1103
 1872PAPC   C1A21092   7.350  22.455   4.663  0.4214 -0.3130  0.0224
 1872PAPC   D2A21093   7.247  22.417   5.033 -0.1807 -0.1130  0.0042
 1872PAPC   D3A21094   7.338  22.347   5.482  0.0609  0.0296 -0.1466
 1872PAPC   D4A21095   7.779  22.475   5.736  0.0424 -0.1424 -0.1329
 1872PAPC   C5A21096   8.009  22.691   5.461 -0.0067  0.1684  0.0623
 1872PAPC   C1B21097   6.907  22.339   4.535  0.0896  0.1928  0.0540
 1872PAPC   C2B21098   6.866  22.118   4.847  0.0122 -0.1939 -0.1734
 1872PAPC   C3B21099   6.873  21.992   5.310  0.1507  0.2025  0.0925
 1872PAPC   C4B21100   6.808  21.847   5.743  0.0292  0.1083  0.2902
 1873PAPC   NC321101   4.638  26.312   3.884  0.0088 -0.0530 -0.2165
 1873PAPC   PO421102   4.440  26.019   3.693 -0.1970  0.2443 -0.1216
 1873PAPC   GL121103   4.393  25.792   3.951  0.2370 -0.1179 -0.1323
 1873PAPC   GL221104   4.626  25.926   4.190 -0.1403  0.0611 -0.0930
 1873PAPC   C1A21105   4.156  25.510   4.061 -0.1046 -0.0985  0.0348
 1873PAPC   D2A21106   4.018  25.116   4.051  0.3437  0.0453  0.3314
 1873PAPC   D3A21107   3.959  24.776   4.279 -0.1598 -0.0476  0.0572
 1873PAPC   D4A21108   4.040  24.742   4.683  0.2816 -0.3877 -0.0693
 1873PAPC   C5A21109   3.823  24.892   5.080 -0.1407 -0.3557  0.3294
 1873PAPC   C1B21110   4.674  25.970   4.560 -0.0070  0.0756 -0.1196
 1873PAPC   C2B21111   4.760  26.093   4.973 -0.1760  0.1461 -0.1829
 1873PAPC   C3B21112   4.922  26.197   5.405 -0.1086 -0.0621  0.0084
 1873PAPC   C4B21113   5.062  26.353   5.842 -0.2321 -0.1527 -0.1905
 1874PAPC   NC321114  26.998  25.838   3.330  0.0418  0.1132  0.0150
 1874PAPC   PO421115  26.614  25.642   3.416  0.2866  0.1421 -0.0696
 1874PAPC   GL121116  26.682  25.857   3.779 -0.4648  0.0323 -0.2451
 1874PAPC   GL221117  26.953  25.871   3.819 -0.4172  0.1332 -0.1262
 1874PAPC   C1A21118  26.389  25.987   3.921  0.1821 -0.1147 -0.5397
 1874PAPC   D2A21119  25.997  25.884   4.007 -0.1543 -0.0936 -0.1108
 1874PAPC   D3A21120  25.769  25.988   4.351 -0.2509  0.2308  0.1527
 1874PAPC   D4A21121  26.129  26.166   4.607 -0.2671  0.0633  0.0543
 1874PAPC   C5A21122  26.228  26.617   4.697  0.0838 -0.0820  0.1602
 1874PAPC   C1B21123  26.930  25.741   4.157 -0.0973 -0.0481 -0.2623
 1874PAPC   C2B21124  26.933  25.609   4.513 -0.5304 -0.1948  0.1340
 1874PAPC   C3B21125  26.833  25.537   4.974 -0.2126 -0.0641 -0.1846
 1874PAPC   C4B21126  26.836  25.482   5.442 -0.2124  0.0060  0.1681
 1875PAPC   NC321127   3.776  21.264   3.718 -0.0649  0.0265  0.3714
 1875PAPC   PO421128   3.691  21.528   3.979 -0.1634  0.1614  0.0485
 1875PAPC   GL121129   3.741  21.328   4.264 -0.0493  0.3802  0.0296
 1875PAPC   GL221130   3.717  21.489   4.476 -0.2630 -0.2941 -0.2131
 1875PAPC   C1A21131   3.498  21.129   4.402  0.2291 -0.3331  0.2416
 1875PAPC   D2A21132   3.415  20.839   4.601  0.0508 -0.4893 -0.4924
 1875PAPC   D3A21133   3.372  20.713   5.028 -0.0724 -0.0101 -0.1085
 1875PAPC   D4A21134   3.632  20.525   5.364  0.0250  0.1789 -0.0760
 1875PAPC   C5A21135   3.575  20.115   5.574  0.1112 -0.0262  0.0985
 1875PAPC   C1B21136   3.453  21.486   4.633 -0.1646 -0.2208  0.1336
 1875PAPC   C2B21137   3.166  21.256   4.820  0.2100 -0.1233  0.1018
 1875PAPC   C3B21138   2.890  21.063   5.152  0.2011  0.1035 -0.2722
 1875PAPC   C4B21139   2.601  21.221   5.490  0.0937  0.1178 -0.1226
 1876PAPC   NC321140  17.388   5.044   3.054 -0.3366  0.0801 -0.2247
 1876PAPC   PO421141  17.693   4.822   3.116 -0.0513 -0.0437 -0.2282
 1876PAPC   GL121142  17.680   4.897   3.491  0.2733  0.0453 -0.2969
 1876PAPC   GL221143  17.461   4.842   3.580  0.1993  0.1081 -0.3560
 1876PAPC   C1A21144  17.746   5.115   3.725 -0.2030  0.1071  0.2681
 1876PAPC   D2A21145  17.639   5.438   3.903 -0.0289  0.0720  0.2913
 1876PAPC   D3A21146  18.096   5.520   4.040  0.0470  0.1818  0.4484
 1876PAPC   D4A21147  18.512   5.297   3.904  0.0447  0.0270 -0.0991
 1876PAPC   C5A21148  18.750   5.186   4.341 -0.1172  0.1071 -0.1580
 1876PAPC   C1B21149  17.643   4.731   3.910  0.3222 -0.0303  0.1996
 1876PAPC   C2B21150  17.596   4.527   4.260  0.0558 -0.1271  0.1363
 1876PAPC   C3B21151  17.538   4.857   4.619  0.1793  0.2014 -0.0750
 1876PAPC   C4B21152  17.480   5.063   5.063  0.0378  0.0719 -0.2147
 1877PAPC   NC321153   8.797  13.283   2.747  0.0908  0.2403 -0.3086
 1877PAPC   PO421154   8.938  13.247   3.129 -0.0917  0.0720 -0.1763
 1877PAPC   GL121155   8.731  13.199   3.510  0.0148 -0.6460  0.0243
 1877PAPC   GL221156   8.886  12.983   3.665 -0.3028 -0.1651  0.3042
 1877PAPC   C1A21157   8.373  13.302   3.614  0.1524  0.1350  0.0270
 1877PAPC   D2A21158   7.983  13.316   3.634  0.1815  0.2870  0.0004
 1877PAPC   D3A21159   7.772  13.403   3.995  0.0386 -0.1071  0.0070
 1877PAPC   D4A21160   8.188  13.524   4.262 -0.0658 -0.4562 -0.0582
 1877PAPC   C5A21161   8.613  13.401   4.103  0.0828 -0.0623  0.1885
 1877PAPC   C1B21162   8.770  12.909   4.025  0.0939 -0.1290  0.0117
 1877PAPC   C2B21163   8.609  12.935   4.351  0.2504  0.2254 -0.0447
 1877PAPC   C3B21164   8.532  12.866   4.812 -0.3553  0.1732  0.3969
 1877PAPC   C4B21165   8.920  13.052   5.065 -0.1879  0.3279  0.2154
 1878PAPC   NC321166  17.058  12.843   2.664 -0.1742 -0.1245 -0.0854
 1878PAPC   PO421167  17.366  12.617   2.756  0.1095 -0.0449  0.0134
 1878PAPC   GL121168  17.299  12.671   3.154  0.0209 -0.3713 -0.1787
 1878PAPC   GL221169  17.285  12.940   3.184 -0.0433 -0.2702  0.1614
 1878PAPC   C1A21170  17.327  12.436   3.439 -0.0612  0.0137  0.1359
 1878PAPC   D2A21171  17.281  12.172   3.740 -0.2403  0.1686  0.2835
 1878PAPC   D3A21172  17.560  11.826   3.751  0.3705  0.0517 -0.1412
 1878PAPC   D4A21173  17.745  11.745   4.151  0.0389 -0.1196 -0.4230
 1878PAPC   C5A21174  18.028  11.299   4.285  0.2441 -0.0328 -0.3801
 1878PAPC   C1B21175  17.078  13.053   3.371 -0.1078  0.1523 -0.3373
 1878PAPC   C2B21176  16.786  13.055   3.673  0.2075 -0.0705 -0.4994
 1878PAPC   C3B21177  16.715  13.197   4.104 -0.0318  0.1476 -0.1396
 1878PAPC   C4B21178  16.537  13.064   4.556  0.0142 -0.1680  0.2386
 1879PAPC   NC321179  15.421  15.912   3.571  0.0078  0.3143  0.3242
 1879PAPC   PO421180  15.530  16.158   3.823 -0.2452 -0.1292  0.3860
 1879PAPC   GL121181  15.449  16.005   4.232 -0.1891  0.1263  0.1298
 1879PAPC   GL221182  15.484  16.298   4.301  0.1201  0.1374 -0.1279
 1879PAPC   C1A21183  15.566  15.663   4.376 -0.1171  0.2152  0.1974
 1879PAPC   D2A21184  15.403  15.330   4.604 -0.2530  0.1665  0.2457
 1879PAPC   D3A21185  15.418  15.159   5.002 -0.0130  0.3615 -0.1087
 1879PAPC   D4A21186  15.053  14.922   5.099  0.0244 -0.0853  0.0488
 1879PAPC   C5A21187  14.906  14.724   5.515  0.2339  0.1003 -0.0964
 1879PAPC   C1B21188  15.514  16.441   4.682 -0.1402 -0.0060  0.0773
 1879PAPC   C2B21189  15.538  16.665   5.032  0.0097  0.1088  0.0976
 1879PAPC   C3B21190  15.573  16.943   5.408  0.1021 -0.0205  0.2612
 1879PAPC   C4B21191  15.964  17.166   5.495  0.0174  0.3531  0.0263
 1880PAPC   NC321192   0.157  16.888   3.823  0.0189 -0.0052 -0.2818
 1880PAPC   PO421193   0.542  17.046   3.886  0.3192  0.0362 -0.0402
 1880PAPC   GL121194   0.717  16.972   4.263  0.1453  0.1921 -0.2804
 1880PAPC   GL221195   0.507  17.097   4.415 -0.0413  0.0731 -0.3430
 1880PAPC   C1A21196   0.923  16.917   4.564 -0.1603 -0.2527 -0.3542
 1880PAPC   D2A21197   1.151  17.012   4.884  0.0708 -0.0847 -0.0471
 1880PAPC   D3A21198   1.269  17.144   5.298  0.1498 -0.2205  0.3166
 1880PAPC   D4A21199   1.567  17.444   5.257  0.0666 -0.0023 -0.3419
 1880PAPC   C5A21200   1.622  17.118   4.935 -0.0170  0.2630 -0.0766
 1880PAPC   C1B21201   0.517  16.979   4.751 -0.1847  0.1299  0.0345
 1880PAPC   C2B21202   0.414  16.847   5.136 -0.2705  0.0384 -0.0421
 1880PAPC   C3B21203   0.302  16.730   5.567  0.0599  0.0106  0.1268
 1880PAPC   C4B21204   0.312  16.557   6.050  0.1219 -0.0813  0.1788
 1881PAPC   NC321205  16.598   0.535   4.027 -0.1944  0.0210 -0.1470
 1881PAPC   PO421206  16.640   0.829   3.806  0.0129  0.0150  0.1331
 1881PAPC   GL121207  16.555   1.051   4.075  0.0686  0.1937  0.1080
 1881PAPC   GL221208  16.471   0.917   4.341 -0.8032  0.2404  0.1976
 1881PAPC   C1A21209  16.562   1.400   4.179  0.2928  0.2303  0.1633
 1881PAPC   D2A21210  16.804   1.652   4.304 -0.5838  0.1689 -0.1499
 1881PAPC   D3A21211  16.851   2.081   4.448  0.4453  0.0663 -0.1534
 1881PAPC   D4A21212  16.741   2.197   4.891  0.0074 -0.0838  0.1090
 1881PAPC   C5A21213  16.912   2.516   5.107  0.0490 -0.0409 -0.1825
 1881PAPC   C1B21214  16.410   1.156   4.586 -0.0002  0.2519  0.2043
 1881PAPC   C2B21215  16.392   1.102   4.980  0.3529 -0.2134  0.2964
 1881PAPC   C3B21216  16.569   1.139   5.441 -0.0822 -0.1445 -0.0617
 1881PAPC   C4B21217  16.800   1.247   5.900  0.0548  0.2792 -0.0617
 1882PAPC   NC321218  26.457  13.555   4.119  0.0229  0.1149  0.2310
 1882PAPC   PO421219  26.789  13.485   3.861  0.0758  0.2505 -0.0622
 1882PAPC   GL121220  27.026  13.693   4.165  0.2821 -0.1005  0.1660
 1882PAPC   GL221221  26.863  13.725   4.365 -0.0237  0.2218  0.0527
 1882PAPC   C1A21222  27.387  13.787   4.251  0.1607 -0.0381  0.3038
 1882PAPC   D2A21223  27.443  13.866   4.598 -0.0430 -0.0119 -0.1955
 1882PAPC   D3A21224  27.277  13.829   4.992  0.3910  0.1438  0.0553
 1882PAPC   D4A21225  27.143  13.797   5.367  0.1609  0.0201 -0.1287
 1882PAPC   C5A21226  26.625  13.886   5.556  0.1506  0.1668  0.3031
 1882PAPC   C1B21227  27.106  13.609   4.639  0.2103 -0.4450 -0.0903
 1882PAPC   C2B21228  27.033  13.396   5.035 -0.0210  0.1205 -0.1894
 1882PAPC   C3B21229  26.879  13.337   5.456 -0.0444 -0.2318 -0.0817
 1882PAPC   C4B21230  26.836  12.996   5.806  0.0627  0.0551  0.2365
 1883PAPC   NC321231  19.698  13.385   3.384 -0.2290  0.0341 -0.0330
 1883PAPC   PO421232  19.363  13.116   3.286  0.0290  0.3869  0.0700
 1883PAPC   GL121233  19.312  12.927   3.715 -0.0617  0.0642 -0.1434
 1883PAPC   GL221234  19.560  12.986   3.792  0.1626 -0.4401 -0.0323
 1883PAPC   C1A21235  18.999  12.803   3.898 -0.2392  0.0415 -0.0494
 1883PAPC   D2A21236  18.612  12.678   3.888 -0.1146 -0.1496 -0.4617
 1883PAPC   D3A21237  18.400  13.085   4.000 -0.0834  0.2027 -0.4119
 1883PAPC   D4A21238  18.127  13.383   3.852  0.2125  0.1866  0.0953
 1883PAPC   C5A21239  18.144  13.413   4.382  0.2028 -0.3608 -0.1787
 1883PAPC   C1B21240  19.482  13.078   4.166 -0.1490  0.3442  0.1771
 1883PAPC   C2B21241  19.501  13.214   4.557  0.0572 -0.2905  0.1781
 1883PAPC   C3B21242  19.733  13.559   4.760  0.2735  0.0948 -0.1109
 1883PAPC   C4B21243  19.911  13.994   4.656  0.3113  0.0404  0.0368
 1884PAPC   NC321244  19.907  16.059   3.135  0.1461 -0.2943 -0.3805
 1884PAPC   PO421245  20.230  15.833   3.206  0.0185 -0.3522 -0.1352
 1884PAPC   GL121246  20.398  15.791   3.610 -0.2224 -0.0471  0.2180
 1884PAPC   GL221247  20.217  15.708   3.665  0.0278  0.4728 -0.1140
 1884PAPC   C1A21248  20.641  15.616   3.804 -0.0443 -0.1345 -0.4326
 1884PAPC   D2A21249  20.983  15.647   4.020  0.0372 -0.1984 -0.1893
 1884PAPC   D3A21250  21.116  15.733   4.388 -0.2048  0.0088  0.0863
 1884PAPC   D4A21251  21.271  15.862   4.876 -0.1362  0.0117  0.2213
 1884PAPC   C5A21252  21.503  15.532   5.079 -0.1158  0.1675 -0.0949
 1884PAPC   C1B21253  20.242  15.497   4.009  0.0165 -0.6284  0.0014
 1884PAPC   C2B21254  20.194  15.311   4.408 -0.3383 -0.0394  0.0329
 1884PAPC   C3B21255  20.086  14.993   4.756  0.2076 -0.1509 -0.2479
 1884PAPC   C4B21256  19.897  14.721   5.120 -0.1415  0.0827  0.3408
 1885PAPC   NC321257  11.970  22.560   2.975  0.5875  0.2738 -0.2342
 1885PAPC   PO421258  12.002  22.394   3.362 -0.0290 -0.1297  0.1276
 1885PAPC   GL121259  11.903  22.317   3.750  0.2231 -0.4120  0.1110
 1885PAPC   GL221260  12.161  22.436   3.824 -0.3363  0.2650 -0.2096
 1885PAPC   C1A21261  11.695  22.434   4.001  0.0539  0.2517 -0.2499
 1885PAPC   D2A21262  11.738  22.381   4.400  0.0323  0.0191  0.4035
 1885PAPC   D3A21263  11.863  22.044   4.692  0.0172  0.0639  0.0849
 1885PAPC   D4A21264  11.786  21.787   5.124 -0.0964  0.0086 -0.1722
 1885PAPC   C5A21265  11.382  21.919   5.345  0.0643 -0.0311 -0.1230
 1885PAPC   C1B21266  12.134  22.429   4.217  0.3803  0.2104  0.1491
 1885PAPC   C2B21267  12.124  22.543   4.643  0.4974  0.0070  0.3409
 1885PAPC   C3B21268  12.244  22.438   5.037 -0.0773  0.0308 -0.1109
 1885PAPC   C4B21269  12.551  22.115   5.356 -0.2367  0.0788  0.1506
 1886PAPC   NC321270  19.177  17.756   3.391  0.0185 -0.1295 -0.0830
 1886PAPC   PO421271  18.804  17.607   3.510 -0.0684 -0.1394  0.0020
 1886PAPC   GL121272  18.716  17.348   3.870 -0.0711 -0.1658  0.0804
 1886PAPC   GL221273  18.728  17.626   3.967 -0.2166  0.0863  0.2029
 1886PAPC   C1A21274  18.519  17.310   4.134 -0.2776  0.0668 -0.4109
 1886PAPC   D2A21275  18.520  17.633   4.464 -0.1302  0.0000 -0.4094
 1886PAPC   D3A21276  18.451  17.589   4.862  0.0703 -0.0654  0.2880
 1886PAPC   D4A21277  18.590  17.901   5.088  0.0824 -0.0995  0.2730
 1886PAPC   C5A21278  18.461  18.222   5.409  0.1661  0.2578 -0.0133
 1886PAPC   C1B21279  18.875  17.489   4.276  0.0669  0.1977 -0.0132
 1886PAPC   C2B21280  18.967  17.441   4.723  0.1646  0.1000  0.1211
 1886PAPC   C3B21281  18.965  17.402   5.173 -0.5567  0.5885  0.1745
 1886PAPC   C4B21282  18.911  17.279   5.573 -0.2389  0.0128 -0.1721
 1887PAPC   NC321283  17.376  26.831   3.513  0.0061  0.3732 -0.2896
 1887PAPC   PO421284  17.304  27.064   3.845  0.0440 -0.2255 -0.1910
 1887PAPC   GL121285  17.202  27.013   4.222  0.2971  0.1185  0.0323
 1887PAPC   GL221286  17.400  27.116   4.335  0.1383  0.1680  0.1335
 1887PAPC   C1A21287  17.192  26.654   4.266 -0.0885  0.0380 -0.1013
 1887PAPC   D2A21288  17.288  26.288   4.414  0.2019 -0.0522  0.2580
 1887PAPC   D3A21289  17.159  26.236   4.826  0.0637 -0.1801 -0.2799
 1887PAPC   D4A21290  16.847  25.905   4.925  0.2177  0.1122  0.4561
 1887PAPC   C5A21291  17.037  25.922   5.364  0.1648  0.0666 -0.0984
 1887PAPC   C1B21292  17.565  26.921   4.560  0.1170 -0.0506 -0.0496
 1887PAPC   C2B21293  17.773  26.814   4.954  0.1020 -0.2042 -0.1678
 1887PAPC   C3B21294  17.859  26.600   5.421  0.1764 -0.1884  0.2318
 1887PAPC   C4B21295  17.971  26.220   5.707 -0.0676 -0.0855 -0.1655
 1888PAPC   NC321296  18.503  14.921   3.295  0.0425  0.0671 -0.1347
 1888PAPC   PO421297  18.246  15.049   3.443  0.1960 -0.1815 -0.2238
 1888PAPC   GL121298  18.413  14.928   3.797 -0.2617  0.1321  0.3574
 1888PAPC   GL221299  18.636  15.123   3.704  0.1745 -0.0069 -0.0662
 1888PAPC   C1A21300  18.407  14.767   4.150 -0.0445 -0.0916  0.1821
 1888PAPC   D2A21301  18.233  14.511   4.394 -0.1985 -0.0516  0.1279
 1888PAPC   D3A21302  18.177  14.156   4.673  0.1732 -0.1971 -0.0180
 1888PAPC   D4A21303  18.319  13.770   4.666  0.1814 -0.2398  0.0582
 1888PAPC   C5A21304  18.603  14.031   4.938 -0.0614  0.1803  0.1602
 1888PAPC   C1B21305  18.742  15.083   4.068  0.2016 -0.5047 -0.4200
 1888PAPC   C2B21306  18.661  14.926   4.462 -0.2006 -0.0899  0.1972
 1888PAPC   C3B21307  18.476  15.117   4.891 -0.1421  0.0072 -0.1776
 1888PAPC   C4B21308  18.247  15.459   5.153  0.0044  0.0058  0.1542
 1889PAPC   NC321309   5.955   6.669   3.513 -0.0218  0.0111 -0.0593
 1889PAPC   PO421310   5.629   6.604   3.392  0.3892  0.1445 -0.2579
 1889PAPC   GL121311   5.340   6.658   3.685 -0.2167 -0.0283 -0.2696
 1889PAPC   GL221312   5.421   6.841   3.817  0.1248  0.0127 -0.0339
 1889PAPC   C1A21313   5.152   6.409   3.956 -0.1560 -0.3452  0.0245
 1889PAPC   D2A21314   4.849   6.315   3.732 -0.0584 -0.0276 -0.3432
 1889PAPC   D3A21315   4.911   5.917   3.872  0.0287  0.1563  0.2221
 1889PAPC   D4A21316   4.938   5.506   4.119  0.2954 -0.0842  0.0667
 1889PAPC   C5A21317   5.338   5.425   3.910  0.1946  0.1116  0.2575
 1889PAPC   C1B21318   5.487   6.838   4.184  0.1253 -0.3347 -0.0451
 1889PAPC   C2B21319   5.696   6.813   4.537  0.0596 -0.0058 -0.0300
 1889PAPC   C3B21320   6.027   6.638   4.862 -0.0999  0.0255  0.1945
 1889PAPC   C4B21321   5.850   6.427   5.309  0.1343  0.0472  0.2069
 1890PAPC   NC321322  22.878  23.255   3.114 -0.1038  0.4346 -0.1557
 1890PAPC   PO421323  22.675  22.964   3.299  0.1779  0.0055 -0.1402
 1890PAPC   GL121324  22.507  22.775   3.663  0.2393  0.4847 -0.3087
 1890PAPC   GL221325  22.442  22.982   3.762  0.0760  0.1042 -0.0083
 1890PAPC   C1A21326  22.541  22.606   3.983  0.3873  0.2259  0.1840
 1890PAPC   D2A21327  22.375  22.615   4.369 -0.4705  0.0998 -0.0023
 1890PAPC   D3A21328  22.530  22.488   4.754 -0.1377  0.1762 -0.0275
 1890PAPC   D4A21329  22.359  22.366   5.189  0.4217 -0.2518  0.2055
 1890PAPC   C5A21330  22.361  22.807   5.237 -0.0364  0.2643 -0.0150
 1890PAPC   C1B21331  22.281  23.005   4.111  0.1971  0.0565  0.2868
 1890PAPC   C2B21332  22.036  23.262   4.326 -0.0614  0.0973 -0.0285
 1890PAPC   C3B21333  21.836  23.414   4.750 -0.4501  0.0742 -0.0780
 1890PAPC   C4B21334  21.760  23.900   4.854 -0.1794 -0.0567 -0.0823
 1891PAPC   NC321335  11.496  20.465   3.002 -0.0253 -0.1313 -0.0184
 1891PAPC   PO421336  11.562  20.222   3.305 -0.0252  0.0250  0.1196
 1891PAPC   GL121337  11.803  20.364   3.679 -0.4086 -0.0116 -0.0607
 1891PAPC   GL221338  11.508  20.421   3.782  0.2400 -0.3958  0.1394
 1891PAPC   C1A21339  12.015  20.134   3.810  0.0655 -0.0783 -0.0028
 1891PAPC   D2A21340  12.019  19.722   3.923  0.1580  0.0700  0.0599
 1891PAPC   D3A21341  11.639  19.519   4.023  0.0358  0.0883  0.1237
 1891PAPC   D4A21342  11.572  19.173   4.298 -0.0225 -0.3252 -0.2139
 1891PAPC   C5A21343  11.894  18.821   4.291  0.0723  0.1368  0.2047
 1891PAPC   C1B21344  11.387  20.532   4.106  0.2170  0.3755 -0.0142
 1891PAPC   C2B21345  11.237  20.651   4.449  0.1405 -0.2227 -0.5497
 1891PAPC   C3B21346  11.188  20.741   4.942  0.0087 -0.0317  0.0098
 1891PAPC   C4B21347  11.058  20.550   5.361  0.2295  0.1966 -0.1441
 1892PAPC   NC321348  24.471  12.345   4.117 -0.3206  0.2287  0.1261
 1892PAPC   PO421349  24.111  12.449   4.050  0.0066 -0.0747 -0.1586
 1892PAPC   GL121350  23.803  12.256   4.265 -0.1754 -0.0248 -0.1223
 1892PAPC   GL221351  23.654  12.306   4.022 -0.0354 -0.1677 -0.0621
 1892PAPC   C1A21352  23.587  12.185   4.562 -0.2531 -0.1994 -0.1200
 1892PAPC   D2A21353  23.629  12.029   4.916 -0.1968 -0.0479 -0.0979
 1892PAPC   D3A21354  23.457  12.051   5.290 -0.1514 -0.2637  0.1054
 1892PAPC   D4A21355  23.703  12.481   5.321 -0.0113  0.2179 -0.1510
 1892PAPC   C5A21356  23.630  12.974   5.169 -0.0730  0.1591  0.2030
 1892PAPC   C1B21357  23.469  12.573   4.081  0.2019  0.2891  0.3176
 1892PAPC   C2B21358  23.251  12.736   4.375  0.0553 -0.0824 -0.0476
 1892PAPC   C3B21359  22.969  12.507   4.699 -0.0069  0.2265  0.0978
 1892PAPC   C4B21360  22.768  12.258   5.066 -0.0900 -0.4696 -0.3465
 1893PAPC   NC321361   1.273  16.377   3.868  0.0510 -0.0962  0.0691
 1893PAPC   PO421362   0.957  16.097   3.830  0.1594 -0.3590 -0.2899
 1893PAPC   GL121363   0.743  15.818   4.089  0.2265  0.2643  0.0297
 1893PAPC   GL221364   1.070  15.837   4.296  0.1676  0.0310  0.0631
 1893PAPC   C1A21365   0.502  15.734   4.367  0.0733  0.0117 -0.0587
 1893PAPC   D2A21366   0.224  15.650   4.656  0.2507  0.3812 -0.1094
 1893PAPC   D3A21367   0.458  15.303   4.910  0.0708 -0.5703  0.1392
 1893PAPC   D4A21368   0.615  15.147   5.289 -0.3018  0.1258 -0.0188
 1893PAPC   C5A21369   1.041  14.892   5.343  0.0806 -0.1021  0.0316
 1893PAPC   C1B21370   1.374  15.742   4.547 -0.1167  0.0127 -0.2953
 1893PAPC   C2B21371   1.510  15.564   4.898  0.1354  0.3657 -0.1543
 1893PAPC   C3B21372   1.601  15.116   5.041 -0.3113 -0.2219  0.1878
 1893PAPC   C4B21373   1.950  14.813   5.246  0.1338 -0.1339 -0.3284
 1894PAPC   NC321374  23.998   2.587   3.723  0.1616 -0.1872 -0.2461
 1894PAPC   PO421375  23.737   2.273   3.709 -0.1336  0.0899  0.1392
 1894PAPC   GL121376  23.902   1.918   3.995 -0.4300 -0.1090 -0.2204
 1894PAPC   GL221377  24.101   2.163   4.047 -0.0511 -0.2383 -0.2122
 1894PAPC   C1A21378  23.639   1.859   4.247  0.2637 -0.0379  0.0249
 1894PAPC   D2A21379  23.448   1.754   4.579  0.0309  0.2404  0.0713
 1894PAPC   D3A21380  23.327   1.837   4.994  0.0907 -0.0522  0.1703
 1894PAPC   D4A21381  23.300   1.641   5.418 -0.0798  0.0374 -0.2855
 1894PAPC   C5A21382  22.894   1.707   5.210  0.0645  0.1968 -0.2564
 1894PAPC   C1B21383  24.220   2.127   4.332 -0.0460 -0.0764  0.2500
 1894PAPC   C2B21384  24.304   2.003   4.788 -0.1028 -0.4757  0.1841
 1894PAPC   C3B21385  24.288   1.903   5.246 -0.2490 -0.0283  0.0752
 1894PAPC   C4B21386  23.977   1.551   5.315 -0.0284 -0.2026 -0.0194
 1895PAPC   NC321387  21.831   7.539   3.472 -0.2977  0.2250  0.0151
 1895PAPC   PO421388  21.519   7.749   3.408  0.3020  0.2575  0.0910
 1895PAPC   GL121389  21.458   7.703   3.796 -0.2191  0.1841 -0.2178
 1895PAPC   GL221390  21.434   7.475   3.870 -0.4146  0.1834  0.7223
 1895PAPC   C1A21391  21.599   7.886   4.071 -0.0232 -0.4441 -0.5801
 1895PAPC   D2A21392  21.718   8.137   4.388  0.2503 -0.0670  0.0287
 1895PAPC   D3A21393  21.667   8.066   4.862  0.1738 -0.0525 -0.0365
 1895PAPC   D4A21394  21.674   8.395   5.099 -0.0017  0.1226 -0.0840
 1895PAPC   C5A21395  21.843   8.833   5.093 -0.1092  0.1908 -0.0482
 1895PAPC   C1B21396  21.570   7.267   4.164 -0.1511 -0.0250 -0.1146
 1895PAPC   C2B21397  21.714   7.112   4.567 -0.1270  0.0014 -0.0871
 1895PAPC   C3B21398  21.786   7.346   4.899 -0.0435  0.1263  0.1732
 1895PAPC   C4B21399  22.215   7.432   5.152 -0.2125 -0.0018  0.1048
 1896PAPC   NC321400  11.146   4.275   3.170 -0.0426  0.2132 -0.0374
 1896PAPC   PO421401  11.389   4.241   3.431  0.2312 -0.1828 -0.3603
 1896PAPC   GL121402  11.295   4.335   3.825 -0.0772 -0.0986 -0.1086
 1896PAPC   GL221403  11.193   4.086   3.949  0.1328  0.3913  0.1579
 1896PAPC   C1A21404  11.466   4.619   3.959 -0.0646  0.0730 -0.1367
 1896PAPC   D2A21405  11.268   4.654   4.258 -0.1247 -0.1760 -0.0555
 1896PAPC   D3A21406  11.103   4.541   4.654 -0.0415  0.2048  0.1258
 1896PAPC   D4A21407  10.873   4.495   5.027  0.0827 -0.0819 -0.2278
 1896PAPC   C5A21408  10.514   4.422   5.296  0.3714  0.3093  0.1997
 1896PAPC   C1B21409  11.194   4.018   4.309 -0.1522 -0.2520  0.2135
 1896PAPC   C2B21410  11.027   4.003   4.704  0.3471  0.0503 -0.0909
 1896PAPC   C3B21411  11.017   4.081   5.188  0.3723 -0.1313  0.1412
 1896PAPC   C4B21412  11.094   3.771   5.622  0.0691  0.0089  0.1051
 1897PAPC   NC321413  16.999  25.526   3.824 -0.4062 -0.2729  0.1386
 1897PAPC   PO421414  16.968  25.198   3.573  0.1390  0.0062 -0.0825
 1897PAPC   GL121415  16.966  24.986   3.978 -0.2035 -0.1383 -0.2297
 1897PAPC   GL221416  16.738  25.111   4.059  0.1569  0.0820  0.0917
 1897PAPC   C1A21417  16.900  24.691   4.215  0.2802 -0.3346  0.2740
 1897PAPC   D2A21418  16.769  24.469   4.559  0.0118 -0.0392 -0.2336
 1897PAPC   D3A21419  16.775  24.384   4.928  0.2081  0.0953  0.0897
 1897PAPC   D4A21420  16.764  24.095   5.266 -0.3756  0.1331 -0.0806
 1897PAPC   C5A21421  17.004  23.771   5.011 -0.0635 -0.0197  0.1238
 1897PAPC   C1B21422  16.943  25.325   4.246 -0.3556 -0.1448  0.2827
 1897PAPC   C2B21423  17.322  25.230   4.151 -0.3099  0.0110 -0.4956
 1897PAPC   C3B21424  17.436  25.172   4.608  0.1419  0.1943 -0.0640
 1897PAPC   C4B21425  17.616  24.914   5.003 -0.1987  0.1975  0.2843
 1898PAPC   NC321426   7.659  25.032   3.519  0.0369  0.1430 -0.1563
 1898PAPC   PO421427   7.931  25.110   3.811  0.0112  0.3957 -0.0786
 1898PAPC   GL121428   8.017  25.363   4.152  0.2542 -0.3068 -0.0669
 1898PAPC   GL221429   8.174  25.160   4.227  0.0730  0.0065  0.0214
 1898PAPC   C1A21430   8.056  25.702   4.303  0.0204  0.1291  0.3113
 1898PAPC   D2A21431   7.850  25.941   4.567 -0.1151  0.1963  0.0543
 1898PAPC   D3A21432   7.868  25.754   4.916 -0.0382 -0.1086 -0.4996
 1898PAPC   D4A21433   8.024  25.855   5.354 -0.0441  0.0489 -0.0192
 1898PAPC   C5A21434   7.770  25.543   5.522 -0.2612 -0.1857  0.3071
 1898PAPC   C1B21435   8.421  25.070   4.507 -0.0848  0.1414  0.0662
 1898PAPC   C2B21436   8.775  25.119   4.737  0.0141 -0.2751 -0.1425
 1898PAPC   C3B21437   9.047  25.309   5.082  0.0528 -0.0774  0.0551
 1898PAPC   C4B21438   9.265  25.594   5.331 -0.0322  0.3823  0.0483
 1899PAPC   NC321439   8.945  23.379   2.964 -0.4038 -0.0912 -0.3358
 1899PAPC   PO421440   8.824  23.481   3.344  0.0656 -0.0246  0.3030
 1899PAPC   GL121441   8.873  23.418   3.749  0.0598  0.5256  0.2961
 1899PAPC   GL221442   8.856  23.691   3.859 -0.4248 -0.1998  0.5792
 1899PAPC   C1A21443   9.028  23.197   4.024 -0.2040 -0.3642  0.0336
 1899PAPC   D2A21444   9.018  22.978   4.341 -0.1867 -0.2602  0.2058
 1899PAPC   D3A21445   9.226  22.755   4.660 -0.2836 -0.0388 -0.0685
 1899PAPC   D4A21446   9.236  22.307   4.851  0.2864  0.0418 -0.0243
 1899PAPC   C5A21447   9.532  22.493   5.183 -0.0327  0.1782  0.2415
 1899PAPC   C1B21448   8.975  23.683   4.183  0.3056  0.1595  0.0681
 1899PAPC   C2B21449   9.126  23.722   4.532 -0.1718 -0.3436  0.0172
 1899PAPC   C3B21450   9.311  23.617   4.928  0.1485 -0.0591 -0.2661
 1899PAPC   C4B21451   9.675  23.503   5.244  0.0355 -0.0762  0.2916
 1900PAPC   NC321452  16.320   1.363   3.759 -0.1699 -0.1254 -0.1113
 1900PAPC   PO421453  15.961   1.391   3.914  0.2967  0.1141 -0.1411
 1900PAPC   GL121454  15.956   1.251   4.328  0.1343  0.1485  0.2091
 1900PAPC   GL221455  15.729   1.017   4.205 -0.2378 -0.1090 -0.2156
 1900PAPC   C1A21456  16.065   1.396   4.665 -0.2173 -0.0225  0.5138
 1900PAPC   D2A21457  15.905   1.534   4.969 -0.0402 -0.3094  0.2157
 1900PAPC   D3A21458  16.078   1.476   5.385 -0.0789 -0.1744 -0.1384
 1900PAPC   D4A21459  16.099   1.227   5.730 -0.2046 -0.0971 -0.0983
 1900PAPC   C5A21460  16.149   0.902   5.371 -0.0395  0.0918 -0.0495
 1900PAPC   C1B21461  15.510   0.861   4.404  0.0741 -0.2308  0.1729
 1900PAPC   C2B21462  15.465   0.882   4.810  0.3547  0.1932 -0.1618
 1900PAPC   C3B21463  15.299   0.697   5.198  0.0138  0.1525  0.0094
 1900PAPC   C4B21464  14.916   0.459   5.285  0.0716  0.0921 -0.0248
 1901PAPC   NC321465  12.838   9.833   3.868 -0.0299  0.0620  0.0767
 1901PAPC   PO421466  13.160  10.031   3.936  0.3720 -0.1322 -0.0804
 1901PAPC   GL121467  13.317  10.335   4.238  0.1535 -0.1134  0.0660
 1901PAPC   GL221468  13.233  10.042   4.398 -0.2524 -0.1660 -0.0032
 1901PAPC   C1A21469  13.087  10.553   4.398 -0.1804  0.2208 -0.0077
 1901PAPC   D2A21470  12.822  10.419   4.683 -0.0798 -0.0382  0.0781
 1901PAPC   D3A21471  12.770  10.447   5.150  0.0301 -0.2828 -0.2376
 1901PAPC   D4A21472  13.056  10.333   5.577 -0.2564 -0.1496  0.2387
 1901PAPC   C5A21473  13.065  10.640   5.868  0.0284  0.2924 -0.3478
 1901PAPC   C1B21474  13.046  10.038   4.732  0.1052 -0.0727  0.0199
 1901PAPC   C2B21475  13.031   9.940   5.125 -0.4112  0.0201 -0.0863
 1901PAPC   C3B21476  13.160   9.868   5.609  0.0373  0.1683 -0.0291
 1901PAPC   C4B21477  13.216  10.000   6.012 -0.3919 -0.1944 -0.0038
 1902PAPC   NC321478   3.931  27.477   3.731  0.1079 -0.0417 -0.2133
 1902PAPC   PO421479   4.297  27.533   3.719  0.1846 -0.2032  0.0650
 1902PAPC   GL121480   4.315  27.511   4.069 -0.7133 -0.5253  0.3153
 1902PAPC   GL221481   4.216  27.200   4.049  0.0710  0.1094  0.3522
 1902PAPC   C1A21482   4.264  27.630   4.411  0.2097  0.1073 -0.1622
 1902PAPC   D2A21483   4.231  27.749   4.759 -0.3895 -0.0079 -0.1598
 1902PAPC   D3A21484   4.335  27.915   5.199  0.3302 -0.1529 -0.1812
 1902PAPC   D4A21485   4.446  28.105   5.568 -0.1319 -0.0952 -0.1698
 1902PAPC   C5A21486   4.404  28.336   5.964 -0.0228 -0.0277  0.1522
 1902PAPC   C1B21487   3.990  27.136   4.348  0.1949 -0.2501 -0.0655
 1902PAPC   C2B21488   3.890  27.371   4.693 -0.0805  0.0807 -0.1680
 1902PAPC   C3B21489   3.667  27.666   4.988  0.0447  0.2734 -0.2349
 1902PAPC   C4B21490   3.584  27.800   5.494 -0.2349  0.2114  0.1435
 1903PAPC   NC321491  12.919  21.015   3.581 -0.1566  0.0221  0.3433
 1903PAPC   PO421492  13.237  21.107   3.397 -0.0009  0.1298  0.1251
 1903PAPC   GL121493  13.363  21.179   3.739 -0.2089 -0.3018  0.3510
 1903PAPC   GL221494  13.451  20.908   3.852  0.0195 -0.0861 -0.3282
 1903PAPC   C1A21495  13.372  21.261   4.064 -0.2806 -0.3262 -0.1110
 1903PAPC   D2A21496  13.224  21.505   4.349  0.1099  0.4257  0.0692
 1903PAPC   D3A21497  12.857  21.544   4.656  0.2282  0.2586 -0.1112
 1903PAPC   D4A21498  12.940  21.601   5.117  0.1568 -0.6249  0.0124
 1903PAPC   C5A21499  12.444  21.750   5.036  0.1006 -0.0365  0.2913
 1903PAPC   C1B21500  13.238  20.755   4.114  0.1153 -0.3590 -0.0291
 1903PAPC   C2B21501  13.081  20.616   4.466 -0.0695  0.0719  0.2231
 1903PAPC   C3B21502  12.993  20.212   4.760 -0.1745  0.0324  0.0123
 1903PAPC   C4B21503  12.914  19.799   4.988  0.1852 -0.2934  0.0336
 1904PAPC   NC321504  16.673  11.285   3.427  0.1414  0.2295 -0.0058
 1904PAPC   PO421505  16.757  10.888   3.484 -0.1739  0.2389  0.0784
 1904PAPC   GL121506  16.981  10.618   3.739  0.0698  0.3782  0.1239
 1904PAPC   GL221507  16.707  10.518   3.859  0.0453  0.1370  0.3172
 1904PAPC   C1A21508  17.234  10.367   3.676  0.1060 -0.0512  0.5499
 1904PAPC   D2A21509  17.530  10.175   3.621 -0.3599  0.1907  0.1165
 1904PAPC   D3A21510  17.779   9.821   3.565  0.0777  0.4855 -0.4020
 1904PAPC   D4A21511  18.072   9.503   3.748 -0.0577  0.1635  0.1776
 1904PAPC   C5A21512  18.046   9.480   4.161  0.0487 -0.1847  0.0473
 1904PAPC   C1B21513  16.757  10.482   4.217 -0.1787  0.3441  0.0402
 1904PAPC   C2B21514  17.093  10.493   4.459 -0.1833 -0.1028 -0.1475
 1904PAPC   C3B21515  17.457  10.442   4.712 -0.0614  0.2143 -0.1956
 1904PAPC   C4B21516  17.697  10.328   5.129 -0.2359  0.0160 -0.0823
 1905PAPC   NC321517  15.497   5.869   3.721  0.0819 -0.0591 -0.0362
 1905PAPC   PO421518  15.352   5.469   3.687  0.1256 -0.0569 -0.1099
 1905PAPC   GL121519  15.187   5.427   4.064  0.0318  0.1303  0.1428
 1905PAPC   GL221520  15.384   5.683   4.176  0.2305  0.0889  0.1841
 1905PAPC   C1A21521  15.039   5.535   4.337  0.0915  0.4273  0.0206
 1905PAPC   D2A21522  14.937   5.915   4.497  0.0079 -0.0094  0.2111
 1905PAPC   D3A21523  14.912   5.677   4.888 -0.3308  0.0598  0.1379
 1905PAPC   D4A21524  14.843   5.467   5.289 -0.1289 -0.2194  0.0013
 1905PAPC   C5A21525  14.369   5.497   5.308 -0.0949 -0.0265  0.1601
 1905PAPC   C1B21526  15.371   5.698   4.507 -0.2002  0.0663 -0.0698
 1905PAPC   C2B21527  15.409   5.687   4.902  0.1753  0.2648 -0.3897
 1905PAPC   C3B21528  15.228   5.978   5.245 -0.1851  0.1035  0.0743
 1905PAPC   C4B21529  15.161   6.468   5.371 -0.1005  0.2499  0.0748
 1906PAPC   NC321530  27.063   1.196   3.942  0.0076 -0.0477 -0.0892
 1906PAPC   PO421531  26.807   1.044   3.720  0.0044  0.0265 -0.3254
 1906PAPC   GL121532  26.622   0.838   3.991  0.0843  0.0264  0.0482
 1906PAPC   GL221533  26.654   0.995   4.214 -0.0459 -0.1623  0.0193
 1906PAPC   C1A21534  26.296   0.774   4.093 -0.0527 -0.4356 -0.0745
 1906PAPC   D2A21535  26.108   1.012   4.317 -0.1336  0.1422 -0.0309
 1906PAPC   D3A21536  25.696   0.891   4.537 -0.3736 -0.1474 -0.1695
 1906PAPC   D4A21537  25.722   0.687   4.984 -0.1752  0.0262  0.2209
 1906PAPC   C5A21538  25.353   0.689   5.340  0.1056  0.0823  0.1123
 1906PAPC   C1B21539  26.531   0.932   4.532  0.5892 -0.2878  0.1279
 1906PAPC   C2B21540  26.266   0.862   4.859 -0.1931  0.1451  0.1083
 1906PAPC   C3B21541  26.035   0.961   5.276  0.0622  0.0937 -0.0795
 1906PAPC   C4B21542  25.950   1.415   5.418  0.3866  0.1758 -0.3585
 1907PAPC   NC321543  16.394  20.917   3.934  0.2436 -0.0921 -0.2102
 1907PAPC   PO421544  16.033  20.875   3.833 -0.1417 -0.3883 -0.1319
 1907PAPC   GL121545  15.704  20.740   3.985  0.0485 -0.0887 -0.1810
 1907PAPC   GL221546  15.522  20.902   3.850  0.4822 -0.0944  0.0933
 1907PAPC   C1A21547  15.614  20.648   4.300  0.2212  0.0093  0.1227
 1907PAPC   D2A21548  15.724  20.397   4.595 -0.2378 -0.1104 -0.2248
 1907PAPC   D3A21549  16.103  20.304   4.801  0.0616 -0.1449  0.0989
 1907PAPC   D4A21550  15.964  20.024   5.123 -0.0510  0.1210  0.0614
 1907PAPC   C5A21551  16.146  19.948   5.609 -0.0470  0.0769  0.3924
 1907PAPC   C1B21552  15.271  20.872   4.096  0.0616  0.0640 -0.0005
 1907PAPC   C2B21553  15.090  21.001   4.482  0.3511 -0.0835  0.0503
 1907PAPC   C3B21554  14.769  20.991   4.905 -0.1169 -0.2298  0.0533
 1907PAPC   C4B21555  14.537  20.787   5.304 -0.1838 -0.1254 -0.0214
 1908PAPC   NC321556   7.651   8.387   3.292  0.2249 -0.1267  0.1596
 1908PAPC   PO421557   7.809   8.324   3.630 -0.0760 -0.1699 -0.0685
 1908PAPC   GL121558   7.987   8.075   3.961 -0.0065  0.2499  0.3112
 1908PAPC   GL221559   8.188   8.374   3.985 -0.0608  0.1276  0.2644
 1908PAPC   C1A21560   7.846   8.059   4.324  0.0176  0.0658 -0.4811
 1908PAPC   D2A21561   7.638   8.107   4.644  0.2114  0.0755 -0.1548
 1908PAPC   D3A21562   7.749   8.142   5.063  0.0777  0.1928 -0.3184
 1908PAPC   D4A21563   7.774   8.421   5.391  0.1752 -0.1556  0.0440
 1908PAPC   C5A21564   7.891   8.893   5.345 -0.1620  0.1229 -0.2551
 1908PAPC   C1B21565   8.379   8.285   4.271 -0.1046  0.1251  0.0284
 1908PAPC   C2B21566   8.599   8.168   4.635 -0.1748 -0.2760 -0.1935
 1908PAPC   C3B21567   8.866   7.910   4.963  0.1953 -0.0033  0.1345
 1908PAPC   C4B21568   8.854   7.525   5.286  0.1893  0.1715 -0.1735
 1909PAPC   NC321569   7.533   4.123   2.973 -0.2150 -0.5412 -0.1340
 1909PAPC   PO421570   7.266   3.870   3.077 -0.1523  0.1500  0.1040
 1909PAPC   GL121571   7.108   3.962   3.438 -0.0373  0.2989 -0.2085
 1909PAPC   GL221572   7.125   3.764   3.518  0.0045 -0.5561  0.3709
 1909PAPC   C1A21573   7.383   4.176   3.615 -0.0010  0.0344 -0.1801
 1909PAPC   D2A21574   7.511   4.497   3.828 -0.0582 -0.2202  0.0169
 1909PAPC   D3A21575   7.572   4.495   4.272  0.1652 -0.0152  0.1054
 1909PAPC   D4A21576   7.921   4.289   4.431 -0.1366  0.3431  0.2222
 1909PAPC   C5A21577   7.995   4.389   4.856  0.2045  0.1066 -0.0346
 1909PAPC   C1B21578   7.147   3.774   3.863  0.0285  0.3210  0.1773
 1909PAPC   C2B21579   7.352   3.784   4.250  0.1250 -0.0244 -0.1333
 1909PAPC   C3B21580   7.503   3.911   4.573  0.4006  0.0523 -0.4199
 1909PAPC   C4B21581   7.891   3.783   4.925  0.0520 -0.0898  0.2347
 1910PAPC   NC321582   7.607  11.877   3.282  0.2477  0.0595 -0.3450
 1910PAPC   PO421583   7.995  11.833   3.215  0.1216 -0.1077  0.1515
 1910PAPC   GL121584   8.077  12.111   3.534 -0.0891  0.3235 -0.2643
 1910PAPC   GL221585   7.882  11.939   3.774  0.0727 -0.0828  0.1741
 1910PAPC   C1A21586   8.302  12.221   3.775 -0.4410 -0.0237  0.0050
 1910PAPC   D2A21587   8.455  12.475   4.084  0.2049  0.1357 -0.1917
 1910PAPC   D3A21588   8.662  12.364   4.451 -0.3774 -0.2526  0.0119
 1910PAPC   D4A21589   8.636  11.955   4.538  0.2833  0.1071  0.2776
 1910PAPC   C5A21590   8.812  11.814   4.906  0.2106  0.0710  0.0750
 1910PAPC   C1B21591   7.858  12.097   4.100 -0.2775  0.3179  0.2331
 1910PAPC   C2B21592   8.043  12.177   4.487  0.0559  0.3952  0.0745
 1910PAPC   C3B21593   8.291  12.425   4.802 -0.0625 -0.5936 -0.1797
 1910PAPC   C4B21594   8.487  12.670   5.279 -0.0972  0.1926 -0.0887
 1911PAPC   NC321595  18.021   8.459   2.567 -0.2927 -0.0522  0.5164
 1911PAPC   PO421596  17.815   8.430   2.921 -0.0364  0.0159 -0.0687
 1911PAPC   GL121597  17.975   8.681   3.165 -0.4096  0.3305  0.3161
 1911PAPC   GL221598  18.044   8.450   3.340 -0.1148 -0.0453  0.2618
 1911PAPC   C1A21599  17.939   8.914   3.454 -0.0059  0.3706  0.2473
 1911PAPC   D2A21600  17.825   9.017   3.777 -0.2069  0.0388 -0.0651
 1911PAPC   D3A21601  17.834   8.992   4.286  0.0168 -0.1654 -0.0334
 1911PAPC   D4A21602  17.692   9.393   4.469 -0.1986 -0.2983 -0.0592
 1911PAPC   C5A21603  17.379   9.406   4.883  0.2073  0.2553  0.1346
 1911PAPC   C1B21604  18.088   8.577   3.646 -0.2126 -0.0553 -0.2599
 1911PAPC   C2B21605  17.860   8.600   4.007 -0.0688  0.2677 -0.0523
 1911PAPC   C3B21606  17.608   8.567   4.432  0.0093  0.0111  0.2143
 1911PAPC   C4B21607  17.326   8.457   4.817 -0.1498 -0.0619 -0.1602
 1912PAPC   NC321608   1.418   1.930   3.191 -0.1453 -0.0081  0.3089
 1912PAPC   PO421609   1.443   2.322   3.275 -0.2235 -0.1176 -0.0547
 1912PAPC   GL121610   1.277   2.505   3.696  0.0953 -0.4047  0.4590
 1912PAPC   GL221611   1.499   2.666   3.712 -0.4058  0.0157 -0.1693
 1912PAPC   C1A21612   1.087   2.422   3.990  0.4596 -0.0443  0.0042
 1912PAPC   D2A21613   0.945   2.230   4.343 -0.1268  0.1249 -0.1858
 1912PAPC   D3A21614   0.720   2.234   4.768  0.0372 -0.3314 -0.0330
 1912PAPC   D4A21615   0.314   2.057   4.925  0.0357 -0.0859  0.2226
 1912PAPC   C5A21616  -0.133   2.223   5.088  0.1860  0.2051  0.1354
 1912PAPC   C1B21617   1.480   2.566   4.089 -0.1678  0.3051 -0.3962
 1912PAPC   C2B21618   1.599   2.532   4.541 -0.1458 -0.0540 -0.0240
 1912PAPC   C3B21619   1.674   2.449   5.051 -0.0070 -0.1036 -0.3862
 1912PAPC   C4B21620   1.594   2.533   5.486 -0.1308 -0.0080 -0.1970
 1913POPE   NH321621  22.630  15.030   3.249  0.0670  0.0710 -0.2299
 1913POPE   PO421622  22.942  15.104   3.258  0.1643 -0.1480 -0.1537
 1913POPE   GL121623  22.796  15.270   3.604 -0.0554 -0.0912 -0.2516
 1913POPE   GL221624  23.065  15.366   3.605  0.1050 -0.2683  0.4171
 1913POPE   C1A21625  22.726  15.253   4.001  0.1019  0.0881  0.4905
 1913POPE   D2A21626  22.927  15.360   4.450 -0.1851 -0.1970 -0.0680
 1913POPE   C3A21627  22.654  15.638   4.762 -0.0075 -0.3088 -0.4247
 1913POPE   C4A21628  22.268  15.912   4.899  0.1441  0.0579 -0.0136
 1913POPE   C1B21629  23.154  15.077   3.777  0.0440  0.1406  0.0120
 1913POPE   C2B21630  23.190  14.924   4.172 -0.4500 -0.0469  0.0829
 1913POPE   C3B21631  23.290  14.873   4.651 -0.3125  0.2438 -0.2096
 1913POPE   C4B21632  23.416  15.019   5.132  0.1881 -0.1590 -0.0840
 1914POPE   NH321633  13.198  24.745   3.574  0.1965 -0.0149  0.0561
 1914POPE   PO421634  12.903  24.624   3.675 -0.2669 -0.0210  0.4759
 1914POPE   GL121635  12.839  24.782   4.095  0.0681  0.4671 -0.0130
 1914POPE   GL221636  12.691  25.032   3.941 -0.3567 -0.0227 -0.1399
 1914POPE   C1A21637  12.702  24.775   4.462 -0.1488  0.4154  0.0259
 1914POPE   D2A21638  12.745  24.501   4.907  0.0367 -0.1810  0.1923
 1914POPE   C3A21639  12.721  24.337   5.286  0.0063  0.0811 -0.2311
 1914POPE   C4A21640  12.680  24.205   5.762 -0.2493 -0.1395  0.0107
 1914POPE   C1B21641  12.543  25.213   4.223 -0.1340 -0.0051  0.1151
 1914POPE   C2B21642  12.651  25.404   4.584 -0.0499 -0.4957  0.0737
 1914POPE   C3B21643  12.645  25.504   5.051  0.0997  0.2155  0.1582
 1914POPE   C4B21644  12.532  25.335   5.470 -0.3471  0.1116 -0.1061
 1915POPE   NH321645   8.356   7.710   3.209  0.1751  0.1637 -0.0658
 1915POPE   PO421646   8.565   7.938   3.449  0.2025 -0.1499  0.5277
 1915POPE   GL121647   8.420   7.764   3.770  0.2230  0.1787  0.0521
 1915POPE   GL221648   8.364   7.499   3.638 -0.0434 -0.1810  0.1781
 1915POPE   C1A21649   8.263   7.841   4.206  0.4839  0.1149 -0.0786
 1915POPE   D2A21650   8.292   7.772   4.692 -0.2385 -0.1368 -0.0838
 1915POPE   C3A21651   8.318   7.863   5.083  0.0041 -0.1117 -0.0885
 1915POPE   C4A21652   8.057   8.028   5.472 -0.3193 -0.5825  0.3374
 1915POPE   C1B21653   8.281   7.449   3.972 -0.3532  0.3116 -0.1160
 1915POPE   C2B21654   8.210   7.318   4.334  0.2692  0.0363  0.0559
 1915POPE   C3B21655   8.121   7.195   4.831 -0.3053 -0.0488 -0.2915
 1915POPE   C4B21656   8.182   7.349   5.264 -0.1372 -0.1374  0.0778
 1916POPE   NH321657   9.254   7.533   3.262 -0.2025 -0.1376  0.1338
 1916POPE   PO421658   9.246   7.205   3.373 -0.0812 -0.0474  0.3858
 1916POPE   GL121659   9.358   7.089   3.776 -0.3358  0.1161 -0.0720
 1916POPE   GL221660   9.254   6.801   3.669  0.2046 -0.2063 -0.3386
 1916POPE   C1A21661   9.652   7.161   4.075 -0.1743  0.1671  0.0261
 1916POPE   D2A21662  10.046   6.967   4.205  0.0334 -0.1098 -0.0195
 1916POPE   C3A21663  10.274   6.621   4.142  0.0114  0.4434 -0.0791
 1916POPE   C4A21664  10.691   6.434   4.167 -0.0121  0.2733  0.1814
 1916POPE   C1B21665   9.228   6.612   3.983 -0.0476 -0.0579 -0.0888
 1916POPE   C2B21666   9.359   6.392   4.322 -0.1652 -0.0319  0.0162
 1916POPE   C3B21667   9.525   6.340   4.745 -0.0749 -0.0624 -0.0163
 1916POPE   C4B21668  10.039   6.255   4.931  0.3210 -0.0419 -0.2097
 1917POPE   NH321669  27.476   5.565   3.702 -0.0923  0.3577 -0.3559
 1917POPE   PO421670  27.213   5.817   3.691  0.3572  0.1617 -0.0893
 1917POPE   GL121671  27.223   5.924   4.128 -0.0458  0.2550  0.0351
 1917POPE   GL221672  27.005   5.697   4.218  0.1429  0.1064  0.4319
 1917POPE   C1A21673  27.408   5.789   4.564 -0.2142  0.0218 -0.0914
 1917POPE   D2A21674  27.461   5.810   5.055 -0.2066 -0.0002  0.2142
 1917POPE   C3A21675  27.066   5.787   5.324  0.1771 -0.1029  0.2511
 1917POPE   C4A21676  26.861   5.560   5.681  0.1037  0.3385  0.1016
 1917POPE   C1B21677  26.990   5.890   4.503 -0.2869  0.1939 -0.1984
 1917POPE   C2B21678  26.910   6.010   4.858 -0.3113  0.0424  0.3375
 1917POPE   C3B21679  26.686   6.230   5.264 -0.0426  0.3097 -0.1853
 1917POPE   C4B21680  26.437   6.436   5.626  0.0438 -0.0702  0.0023
 1918POPE   NH321681  16.375  12.499   3.077 -0.0705 -0.2844 -0.0632
 1918POPE   PO421682  16.495  12.185   3.073  0.0072 -0.2884  0.0014
 1918POPE   GL121683  16.791  12.316   3.455  0.0390  0.0130 -0.3885
 1918POPE   GL221684  16.608  12.154   3.617  0.2157  0.0628  0.0919
 1918POPE   C1A21685  17.000  12.551   3.742 -0.2072  0.1935 -0.2075
 1918POPE   D2A21686  17.417  12.734   3.980 -0.1999 -0.1499 -0.1279
 1918POPE   C3A21687  17.574  13.005   4.359  0.1388  0.2060  0.0781
 1918POPE   C4A21688  17.642  13.358   4.722  0.1372  0.2686  0.1738
 1918POPE   C1B21689  16.766  12.115   3.948  0.0837  0.0265 -0.0285
 1918POPE   C2B21690  16.689  12.091   4.340 -0.1603 -0.2377  0.0361
 1918POPE   C3B21691  16.743  12.053   4.767  0.2137 -0.1931 -0.0223
 1918POPE   C4B21692  17.090  11.719   4.977 -0.1536  0.3369  0.1373
 1919POPE   NH321693  23.873  18.133   2.964  0.0490  0.2202 -0.1831
 1919POPE   PO421694  23.919  17.775   3.059 -0.2098  0.1059  0.0725
 1919POPE   GL121695  23.765  17.807   3.417 -0.2318 -0.2054 -0.3617
 1919POPE   GL221696  23.684  18.090   3.344  0.0697 -0.5512  0.1064
 1919POPE   C1A21697  23.796  17.775   3.859 -0.0214  0.1970  0.0478
 1919POPE   D2A21698  23.734  17.886   4.336 -0.0659 -0.0449  0.2219
 1919POPE   C3A21699  24.056  17.844   4.656  0.0315  0.3257  0.1113
 1919POPE   C4A21700  23.957  18.104   5.027 -0.1077 -0.3010  0.1229
 1919POPE   C1B21701  23.688  18.249   3.713  0.1033 -0.0832 -0.0120
 1919POPE   C2B21702  23.753  18.635   3.958  0.0929  0.1182 -0.2504
 1919POPE   C3B21703  23.814  19.045   4.213  0.1537 -0.0860  0.1526
 1919POPE   C4B21704  23.791  18.891   4.715 -0.0619 -0.1321  0.0878
 1920POPE   NH321705   8.959  16.739   2.752  0.1040  0.0854 -0.0489
 1920POPE   PO421706   9.202  16.815   2.984 -0.3439  0.1799 -0.1916
 1920POPE   GL121707   9.189  16.695   3.436  0.2191  0.0005 -0.2924
 1920POPE   GL221708   9.160  16.968   3.452  0.0862 -0.2365  0.1680
 1920POPE   C1A21709   9.529  16.525   3.727 -0.0444 -0.3421  0.2843
 1920POPE   D2A21710   9.898  16.746   4.014  0.0459 -0.2479  0.3885
 1920POPE   C3A21711   9.871  16.906   4.491  0.2287 -0.0230 -0.0687
 1920POPE   C4A21712   9.773  16.955   4.998 -0.1510 -0.1871 -0.1005
 1920POPE   C1B21713   9.113  17.029   3.801 -0.1352  0.0017  0.1048
 1920POPE   C2B21714   8.987  17.033   4.194  0.2707  0.0163 -0.1715
 1920POPE   C3B21715   9.023  17.018   4.769 -0.1128 -0.2323 -0.0680
 1920POPE   C4B21716   8.783  17.286   5.155  0.1173  0.1204 -0.0057
 1921POPE   NH321717   0.115  20.716   3.591  0.1954  0.3514  0.0073
 1921POPE   PO421718  -0.198  20.646   3.614  0.0152 -0.1629  0.1515
 1921POPE   GL121719  -0.197  20.942   3.810 -0.3937 -0.0952  0.2106
 1921POPE   GL221720  -0.046  20.917   4.005  0.0640  0.1351 -0.1758
 1921POPE   C1A21721  -0.433  21.248   4.010  0.1379 -0.1903  0.0192
 1921POPE   D2A21722  -0.687  21.656   4.138 -0.2984 -0.0379 -0.0068
 1921POPE   C3A21723  -0.844  22.083   4.189  0.1466 -0.0187  0.0226
 1921POPE   C4A21724  -1.005  22.523   4.021 -0.0619 -0.0334 -0.0136
 1921POPE   C1B21725  -0.130  21.111   4.304  0.0901 -0.0585  0.0666
 1921POPE   C2B21726  -0.414  21.082   4.602 -0.0563  0.0736 -0.0055
 1921POPE   C3B21727  -0.544  20.886   4.949 -0.2884 -0.4127  0.3386
 1921POPE   C4B21728  -0.468  20.578   5.304  0.3050  0.2086  0.1091
 1922POPE   NH321729  11.694   9.970   3.607 -0.0357 -0.2559  0.1056
 1922POPE   PO421730  11.906   9.800   3.804 -0.2324  0.2504  0.4045
 1922POPE   GL121731  11.863   9.879   4.173 -0.0074 -0.0461  0.1949
 1922POPE   GL221732  11.575   9.760   4.167 -0.0746  0.0386  0.0376
 1922POPE   C1A21733  11.992  10.244   4.396 -0.0171  0.3905 -0.1180
 1922POPE   D2A21734  12.143  10.717   4.464 -0.0770  0.1320 -0.0009
 1922POPE   C3A21735  12.381  10.650   4.824  0.0534 -0.0962 -0.1298
 1922POPE   C4A21736  12.327  10.750   5.272 -0.1345 -0.1217  0.2206
 1922POPE   C1B21737  11.603   9.753   4.510 -0.0870 -0.0163 -0.3322
 1922POPE   C2B21738  11.471   9.849   4.937 -0.2499  0.2328 -0.3799
 1922POPE   C3B21739  11.390  10.094   5.325 -0.3658  0.1011 -0.3066
 1922POPE   C4B21740  11.451  10.377   5.728 -0.0865  0.2007 -0.1600
 1923POPE   NH321741  18.217   2.987   3.530 -0.1742 -0.1710  0.0987
 1923POPE   PO421742  18.307   2.660   3.582 -0.0368 -0.2655  0.1277
 1923POPE   GL121743  18.094   2.491   3.823 -0.2405  0.7591 -0.0171
 1923POPE   GL221744  18.127   2.180   3.772 -0.2723 -0.0675 -0.1965
 1923POPE   C1A21745  18.085   2.566   4.267 -0.0272 -0.4509  0.0560
 1923POPE   D2A21746  18.150   2.584   4.807  0.0051  0.0223  0.0364
 1923POPE   C3A21747  17.939   2.706   5.187 -0.2359 -0.0216 -0.0633
 1923POPE   C4A21748  17.586   2.724   5.474 -0.2257 -0.0558 -0.0152
 1923POPE   C1B21749  18.107   2.154   4.169  0.1673 -0.1928  0.2805
 1923POPE   C2B21750  18.364   2.188   4.494  0.0028 -0.4648  0.0222
 1923POPE   C3B21751  18.476   2.138   4.945 -0.0707  0.0317  0.0802
 1923POPE   C4B21752  18.380   2.259   5.374 -0.0123 -0.2213  0.1313
 1924POPE   NH321753   6.983   3.198   3.091  0.1505 -0.0775  0.2383
 1924POPE   PO421754   6.811   2.999   3.300  0.2204 -0.2466  0.1434
 1924POPE   GL121755   6.654   2.846   3.669  0.1420 -0.1721 -0.0268
 1924POPE   GL221756   6.663   2.531   3.639  0.0911  0.0539 -0.2431
 1924POPE   C1A21757   6.939   2.894   3.931  0.2692  0.2998  0.0629
 1924POPE   D2A21758   7.351   2.801   4.303 -0.0935  0.0200  0.1495
 1924POPE   C3A21759   7.547   2.918   4.658  0.1738  0.2485 -0.1805
 1924POPE   C4A21760   7.608   2.466   4.933 -0.0383  0.1043  0.2101
 1924POPE   C1B21761   6.516   2.457   3.972  0.0657  0.2628 -0.1455
 1924POPE   C2B21762   6.452   2.747   4.260 -0.2411  0.2340  0.1626
 1924POPE   C3B21763   6.402   3.109   4.493 -0.3745 -0.0017  0.0808
 1924POPE   C4B21764   6.396   3.591   4.649 -0.1693 -0.1550 -0.2273
 1925POPE   NH321765  12.938  25.283   3.614 -0.1981  0.2086  0.2189
 1925POPE   PO421766  13.259  25.301   3.626  0.1316  0.0823 -0.0823
 1925POPE   GL121767  13.091  25.094   3.965 -0.0175 -0.0931  0.2025
 1925POPE   GL221768  12.972  25.303   4.105 -0.1275  0.0909  0.1541
 1925POPE   C1A21769  13.384  24.939   4.286 -0.0741 -0.1756  0.0198
 1925POPE   D2A21770  13.561  24.979   4.765 -0.0123  0.1145  0.2832
 1925POPE   C3A21771  13.511  24.999   5.211  0.0546 -0.0906 -0.0581
 1925POPE   C4A21772  13.601  25.041   5.676 -0.0974  0.0261 -0.1108
 1925POPE   C1B21773  12.969  25.150   4.431  0.0531 -0.0260  0.2323
 1925POPE   C2B21774  12.980  25.087   4.835  0.2944 -0.0459 -0.0896
 1925POPE   C3B21775  13.050  25.022   5.353 -0.0558  0.0804  0.1305
 1925POPE   C4B21776  13.112  25.046   5.840 -0.0524 -0.2196  0.2722
 1926POPE   NH321777  26.657  19.368   3.418  0.1309 -0.1475  0.4857
 1926POPE   PO421778  26.933  19.228   3.541 -0.2941  0.1119 -0.0784
 1926POPE   GL121779  26.948  19.299   3.960  0.0430  0.1579 -0.0367
 1926POPE   GL221780  26.651  19.318   3.913 -0.0911  0.4329 -0.1841
 1926POPE   C1A21781  27.147  19.014   4.218 -0.0757 -0.1127  0.1951
 1926POPE   D2A21782  27.417  18.856   4.540  0.0619  0.4915  0.2222
 1926POPE   C3A21783  27.466  19.104   4.962 -0.1785  0.1568  0.0902
 1926POPE   C4A21784  27.372  19.215   5.419 -0.0327 -0.1921  0.0656
 1926POPE   C1B21785  26.621  19.264   4.270 -0.5061 -0.2015  0.1492
 1926POPE   C2B21786  26.717  19.016   4.621  0.1304 -0.0522  0.3558
 1926POPE   C3B21787  27.003  19.008   5.028 -0.1208 -0.1612 -0.0385
 1926POPE   C4B21788  27.152  18.795   5.450  0.0261 -0.0016  0.1849
 1927POPE   NH321789   7.696  24.028   3.664 -0.0913  0.1634 -0.1631
 1927POPE   PO421790   8.035  24.084   3.772  0.2320 -0.3676  0.1435
 1927POPE   GL121791   8.019  24.048   4.219 -0.0316  0.0806  0.1021
 1927POPE   GL221792   7.773  24.191   4.158  0.2113  0.2145  0.0861
 1927POPE   C1A21793   7.951  24.280   4.578 -0.1722  0.1005  0.0250
 1927POPE   D2A21794   8.042  24.180   5.077  0.0129  0.2406  0.0128
 1927POPE   C3A21795   8.297  23.953   5.354  0.2313 -0.0883  0.0552
 1927POPE   C4A21796   8.477  23.902   5.826 -0.0020  0.1611  0.1250
 1927POPE   C1B21797   7.567  24.147   4.497 -0.2353  0.0428 -0.1249
 1927POPE   C2B21798   7.687  23.926   4.874 -0.0743  0.2141 -0.1643
 1927POPE   C3B21799   7.767  23.801   5.351 -0.4195 -0.0172 -0.1759
 1927POPE   C4B21800   7.623  23.457   5.723 -0.2438 -0.0463  0.3150
 1928POPE   NH321801  14.018   0.605   3.591  0.3071 -0.0145  0.0272
 1928POPE   PO421802  14.316   0.758   3.693  0.1747  0.1721  0.0980
 1928POPE   GL121803  14.284   0.764   4.083  0.3278  0.1681  0.4051
 1928POPE   GL221804  14.599   0.633   4.141 -0.0151  0.1496  0.0801
 1928POPE   C1A21805  14.518   1.048   4.357  0.0116 -0.0005  0.0932
 1928POPE   D2A21806  14.538   1.225   4.827  0.0790 -0.1518  0.1226
 1928POPE   C3A21807  14.683   1.458   5.228  0.0108 -0.0148  0.0909
 1928POPE   C4A21808  15.018   1.700   5.586 -0.1485  0.1693 -0.3341
 1928POPE   C1B21809  14.827   0.712   4.443 -0.0690  0.0670  0.0863
 1928POPE   C2B21810  14.912   0.817   4.864  0.0673  0.2660 -0.1278
 1928POPE   C3B21811  14.705   0.945   5.290  0.2389 -0.1273  0.2282
 1928POPE   C4B21812  14.673   1.226   5.643 -0.0061  0.2247 -0.0857
 1929POPE   NH321813   3.146  10.907   3.445  0.0219  0.1646 -0.2661
 1929POPE   PO421814   3.413  11.063   3.555  0.0054  0.2442  0.1044
 1929POPE   GL121815   3.243  11.195   3.907  0.1481  0.1462 -0.2311
 1929POPE   GL221816   3.186  10.894   3.877  0.3793  0.0794  0.3769
 1929POPE   C1A21817   3.148  11.211   4.365  0.2066  0.0615  0.2759
 1929POPE   D2A21818   3.100  11.343   4.803  0.4998  0.1743 -0.0064
 1929POPE   C3A21819   3.180  11.026   5.085  0.0586  0.0633 -0.0438
 1929POPE   C4A21820   3.636  10.923   5.034 -0.2176  0.1311  0.2553
 1929POPE   C1B21821   3.074  10.752   4.234 -0.0780  0.0658 -0.0431
 1929POPE   C2B21822   3.085  10.756   4.644 -0.1760  0.0340  0.1436
 1929POPE   C3B21823   3.315  10.544   4.978  0.0208  0.1582  0.0280
 1929POPE   C4B21824   3.608  10.387   5.347  0.1014 -0.2358 -0.0176
 1930POPE   NH321825   7.878   9.507   3.253  0.0429  0.0447 -0.0228
 1930POPE   PO421826   7.573   9.354   3.379 -0.1655 -0.1690  0.2640
 1930POPE   GL121827   7.715   9.158   3.664  0.1183 -0.0255  0.3301
 1930POPE   GL221828   7.702   8.853   3.584 -0.1744  0.1574 -0.0325
 1930POPE   C1A21829   7.684   9.251   4.101 -0.2279  0.0483 -0.0521
 1930POPE   D2A21830   7.639   9.075   4.566 -0.2153  0.1278  0.1661
 1930POPE   C3A21831   7.966   9.044   4.872  0.3564 -0.0089 -0.1604
 1930POPE   C4A21832   8.487   9.035   4.886  0.1481 -0.0348  0.0106
 1930POPE   C1B21833   7.625   8.798   3.942  0.1741  0.1897 -0.0558
 1930POPE   C2B21834   7.377   8.738   4.296  0.0489  0.1780  0.2407
 1930POPE   C3B21835   7.200   8.877   4.729  0.2161  0.0932 -0.0513
 1930POPE   C4B21836   7.472   9.091   5.057 -0.2706  0.3783 -0.2246
 1931POPE   NH321837  12.823  12.408   3.399  0.1446 -0.2232 -0.0800
 1931POPE   PO421838  12.976  12.125   3.235  0.2217 -0.1420  0.2664
 1931POPE   GL121839  13.064  11.986   3.646 -0.1035 -0.4728  0.2165
 1931POPE   GL221840  13.035  12.233   3.733  0.0669  0.2181 -0.0941
 1931POPE   C1A21841  13.200  11.906   4.140 -0.3559  0.1024  0.1501
 1931POPE   D2A21842  13.130  11.971   4.605 -0.0893  0.1127 -0.1168
 1931POPE   C3A21843  13.010  12.194   5.000  0.0906 -0.1622  0.0598
 1931POPE   C4A21844  13.181  12.124   5.461  0.0544 -0.3488  0.4258
 1931POPE   C1B21845  12.954  12.486   3.966  0.1427  0.1366  0.3517
 1931POPE   C2B21846  13.004  12.598   4.394 -0.0265 -0.2292 -0.1578
 1931POPE   C3B21847  13.318  12.748   4.697  0.2397 -0.0093 -0.3684
 1931POPE   C4B21848  13.312  12.507   5.165 -0.0543  0.1069 -0.0728
 1932POPE   NH321849   8.154  17.088   3.298  0.1648  0.1112  0.2731
 1932POPE   PO421850   8.447  17.038   3.400 -0.2741  0.4407  0.3289
 1932POPE   GL121851   8.599  17.372   3.618  0.1969  0.1560 -0.0192
 1932POPE   GL221852   8.849  17.496   3.555 -0.2156  0.2603  0.1278
 1932POPE   C1A21853   8.557  17.212   4.103 -0.0786  0.0732  0.4268
 1932POPE   D2A21854   8.581  17.072   4.589  0.1470  0.1207 -0.0641
 1932POPE   C3A21855   8.535  16.909   4.964 -0.1112 -0.1759  0.0615
 1932POPE   C4A21856   8.939  16.838   5.245 -0.2181  0.1524  0.2210
 1932POPE   C1B21857   8.948  17.400   3.899 -0.1910 -0.0718  0.0259
 1932POPE   C2B21858   8.967  17.519   4.299  0.0571 -0.2132  0.0308
 1932POPE   C3B21859   9.034  17.525   4.756 -0.1679  0.1578  0.0525
 1932POPE   C4B21860   9.154  17.607   5.246 -0.0910  0.2992  0.0550
 1933POPE   NH321861  12.582   7.093   3.454 -0.0431  0.1405  0.2573
 1933POPE   PO421862  12.514   7.386   3.417  0.1306 -0.0262  0.0972
 1933POPE   GL121863  12.407   7.398   3.784  0.3223 -0.3498  0.0706
 1933POPE   GL221864  12.615   7.400   3.977 -0.1668  0.1745  0.3223
 1933POPE   C1A21865  12.027   7.552   4.084  0.2031 -0.1472  0.1533
 1933POPE   D2A21866  11.543   7.589   4.139 -0.2173  0.0141 -0.0246
 1933POPE   C3A21867  11.433   7.538   4.638 -0.1223  0.2024 -0.0504
 1933POPE   C4A21868  11.435   7.575   5.140  0.0752 -0.0037  0.2033
 1933POPE   C1B21869  12.473   7.567   4.272 -0.2388  0.1663 -0.1312
 1933POPE   C2B21870  12.177   7.567   4.587 -0.0679  0.0923  0.1943
 1933POPE   C3B21871  11.883   7.551   4.941 -0.1267  0.3090  0.0495
 1933POPE   C4B21872  11.849   7.199   5.213  0.0308 -0.0578  0.5361
 1934POPE   NH321873   2.204   2.009   3.592 -0.0748  0.1852  0.2735
 1934POPE   PO421874   1.881   1.885   3.558 -0.0745  0.0109 -0.1281
 1934POPE   GL121875   1.828   1.818   3.924  0.0335  0.1484  0.0921
 1934POPE   GL221876   2.179   1.726   3.971  0.0715 -0.0361  0.0777
 1934POPE   C1A21877   1.572   2.045   4.276 -0.4528  0.0890  0.1138
 1934POPE   D2A21878   1.343   1.845   4.652  0.0775 -0.0007 -0.0531
 1934POPE   C3A21879   1.712   1.790   4.964 -0.0521  0.0902 -0.0389
 1934POPE   C4A21880   2.091   1.639   5.183 -0.1613  0.1072 -0.0872
 1934POPE   C1B21881   2.341   1.897   4.274 -0.0048  0.5123 -0.1724
 1934POPE   C2B21882   2.616   1.950   4.602  0.0821 -0.1090  0.4054
 1934POPE   C3B21883   2.667   2.252   5.046  0.0900 -0.0119 -0.1454
 1934POPE   C4B21884   2.801   2.306   5.513  0.4948 -0.2610  0.2369
 1935POPE   NH321885  27.468  17.607   3.719  0.0088 -0.1325  0.1285
 1935POPE   PO421886  27.666  17.348   3.764 -0.1980 -0.2418  0.3515
 1935POPE   GL121887  27.775  17.207   4.142  0.2287 -0.2606 -0.1978
 1935POPE   GL221888  27.588  17.383   4.276 -0.0445  0.0381  0.2978
 1935POPE   C1A21889  27.767  16.824   4.413 -0.1078  0.0104  0.0809
 1935POPE   D2A21890  27.815  16.542   4.817 -0.0671  0.1652  0.1596
 1935POPE   C3A21891  27.934  16.389   5.171 -0.3137 -0.0578  0.2808
 1935POPE   C4A21892  28.281  16.371   5.505 -0.3583  0.1091 -0.0652
 1935POPE   C1B21893  27.241  17.224   4.315 -0.1674  0.2302 -0.1288
 1935POPE   C2B21894  26.950  17.006   4.467 -0.0006 -0.1720  0.1174
 1935POPE   C3B21895  26.600  16.840   4.663  0.1834 -0.0702  0.1280
 1935POPE   C4B21896  26.555  16.867   5.136  0.0307  0.0051  0.1902
 1936POPE   NH321897  21.600   9.937   3.292  0.1323  0.1081  0.2151
 1936POPE   PO421898  21.790  10.016   3.570 -0.2361 -0.1954 -0.2419
 1936POPE   GL121899  22.063   9.907   3.835 -0.1328 -0.0464 -0.0704
 1936POPE   GL221900  22.069   9.632   3.743 -0.0278 -0.0011  0.0030
 1936POPE   C1A21901  22.041   9.796   4.227  0.0955  0.2418 -0.0151
 1936POPE   D2A21902  22.044   9.861   4.691 -0.0881  0.1586  0.1692
 1936POPE   C3A21903  22.114   9.752   5.137 -0.0313  0.0736  0.2810
 1936POPE   C4A21904  22.005   9.850   5.587  0.0554  0.2832 -0.0487
 1936POPE   C1B21905  22.220   9.409   4.008 -0.1268 -0.4174  0.0937
 1936POPE   C2B21906  22.122   9.297   4.380 -0.1343  0.1255  0.0471
 1936POPE   C3B21907  21.904   9.318   4.789 -0.1748  0.3620  0.2175
 1936POPE   C4B21908  21.748   9.394   5.159  0.1042  0.1019 -0.0034
 1937POPE   NH321909  18.765   5.289   3.364 -0.0506  0.0493 -0.0532
 1937POPE   PO421910  18.475   5.072   3.416 -0.0680  0.0826 -0.0920
 1937POPE   GL121911  18.265   4.927   3.724 -0.2836 -0.1457 -0.0908
 1937POPE   GL221912  18.108   4.699   3.715  0.0498 -0.2210 -0.0068
 1937POPE   C1A21913  18.330   4.896   4.177 -0.2984 -0.0454 -0.0934
 1937POPE   D2A21914  18.290   5.064   4.638 -0.0070  0.1195 -0.0062
 1937POPE   C3A21915  17.913   5.215   4.703 -0.1870  0.1590 -0.0478
 1937POPE   C4A21916  17.828   5.724   4.759  0.2183  0.0338 -0.3515
 1937POPE   C1B21917  18.043   4.536   4.089  0.1044  0.0158 -0.0460
 1937POPE   C2B21918  18.010   4.619   4.534  0.1765 -0.1465  0.0717
 1937POPE   C3B21919  17.855   4.773   4.947  0.1017 -0.2120  0.1805
 1937POPE   C4B21920  18.090   4.915   5.362 -0.2079  0.2840  0.0663
 1938POPE   NH321921  10.222  19.713   3.258 -0.2511 -0.1576  0.1410
 1938POPE   PO421922  10.499  19.950   3.259 -0.3468 -0.0365  0.1185
 1938POPE   GL121923  10.846  19.780   3.486  0.1088  0.1198  0.0885
 1938POPE   GL221924  11.041  19.996   3.517  0.1210 -0.0688  0.2328
 1938POPE   C1A21925  10.866  19.802   3.872  0.0056  0.4019 -0.0878
 1938POPE   D2A21926  10.536  19.949   4.196 -0.0314 -0.0807 -0.1501
 1938POPE   C3A21927  10.474  20.226   4.539  0.0545 -0.2614 -0.0426
 1938POPE   C4A21928  10.613  20.386   4.992  0.1554 -0.0198 -0.2777
 1938POPE   C1B21929  11.266  20.075   3.818  0.0966  0.1985  0.0565
 1938POPE   C2B21930  11.465  20.094   4.156  0.0660 -0.0963  0.1966
 1938POPE   C3B21931  11.449  20.176   4.636  0.0616  0.3496  0.3387
 1938POPE   C4B21932  11.225  20.259   5.032 -0.1358 -0.1712  0.1057
 1939POPE   NH321933   2.403  11.042   3.672  0.1120  0.0567 -0.0144
 1939POPE   PO421934   2.743  11.025   3.694 -0.1743 -0.0812 -0.0601
 1939POPE   GL121935   2.722  10.854   4.095  0.5016 -0.0242  0.0237
 1939POPE   GL221936   2.638  11.153   4.082 -0.0091 -0.1277  0.2603
 1939POPE   C1A21937   2.585  10.817   4.528 -0.1643 -0.0651 -0.0445
 1939POPE   D2A21938   2.622  11.132   4.940 -0.0936 -0.2571  0.1419
 1939POPE   C3A21939   2.882  11.406   5.259 -0.2755 -0.0972  0.0168
 1939POPE   C4A21940   3.108  11.483   5.722 -0.1274  0.2961  0.2636
 1939POPE   C1B21941   2.641  11.330   4.436  0.1332 -0.2593  0.0041
 1939POPE   C2B21942   2.682  11.636   4.740 -0.0508 -0.1210  0.1278
 1939POPE   C3B21943   3.068  11.851   5.024 -0.0096  0.0607 -0.0373
 1939POPE   C4B21944   3.359  11.922   5.398  0.2133 -0.0531 -0.3213
 1940POPE   NH321945   8.835  18.330   3.630  0.1839 -0.0887  0.0346
 1940POPE   PO421946   8.808  18.647   3.703  0.1978 -0.2095 -0.0581
 1940POPE   GL121947   8.981  18.704   4.081 -0.1796  0.4322 -0.0549
 1940POPE   GL221948   8.788  18.441   4.121  0.0883  0.2316 -0.3423
 1940POPE   C1A21949   8.781  19.000   4.340 -0.0794 -0.0490 -0.1408
 1940POPE   D2A21950   8.408  18.997   4.725 -0.2780 -0.1481 -0.0890
 1940POPE   C3A21951   8.316  18.912   5.136  0.4091  0.1368 -0.0559
 1940POPE   C4A21952   8.430  18.932   5.629  0.1199  0.2971  0.0001
 1940POPE   C1B21953   8.880  18.511   4.463  0.4143 -0.1751  0.3865
 1940POPE   C2B21954   9.013  18.325   4.831  0.0223 -0.0555 -0.0286
 1940POPE   C3B21955   8.703  18.373   5.250  0.0504 -0.2270  0.0747
 1940POPE   C4B21956   8.481  18.209   5.711 -0.3205  0.2523 -0.1505
 1941POPE   NH321957  13.165  17.736   3.332  0.4194 -0.1835  0.3094
 1941POPE   PO421958  13.403  17.529   3.478 -0.0667 -0.1523 -0.0389
 1941POPE   GL121959  13.644  17.622   3.842  0.2349 -0.1420 -0.0038
 1941POPE   GL221960  13.614  17.354   3.966  0.0687 -0.2802 -0.0579
 1941POPE   C1A21961  13.727  17.944   4.169 -0.2080  0.0462 -0.3184
 1941POPE   D2A21962  14.023  17.752   4.523 -0.1433 -0.0920 -0.0606
 1941POPE   C3A21963  14.227  17.597   4.907  0.0504 -0.2188 -0.1073
 1941POPE   C4A21964  14.310  17.689   5.375 -0.1384 -0.0005  0.2162
 1941POPE   C1B21965  13.767  17.470   4.265 -0.1610 -0.2087  0.3056
 1941POPE   C2B21966  13.852  17.372   4.697  0.1215  0.2458 -0.1920
 1941POPE   C3B21967  13.999  17.215   5.096  0.0451  0.0726  0.1889
 1941POPE   C4B21968  13.803  16.926   5.432  0.4394 -0.2756  0.1086
 1942POPE   NH321969  14.737   0.996   3.788 -0.1678  0.3199  0.0547
 1942POPE   PO421970  14.967   1.179   3.681  0.0805  0.0858 -0.4668
 1942POPE   GL121971  15.049   1.228   4.118  0.2773  0.1318  0.3361
 1942POPE   GL221972  15.065   1.486   4.051  0.2964 -0.1196  0.0172
 1942POPE   C1A21973  15.128   1.105   4.537  0.0107 -0.2323 -0.2219
 1942POPE   D2A21974  15.243   1.265   5.020 -0.3628 -0.1174 -0.0607
 1942POPE   C3A21975  15.197   1.151   5.429 -0.3718  0.2366 -0.3869
 1942POPE   C4A21976  15.022   0.855   5.729  0.1110  0.1156 -0.1379
 1942POPE   C1B21977  14.891   1.579   4.347  0.1727 -0.2204  0.0393
 1942POPE   C2B21978  15.104   1.630   4.681 -0.0489  0.0596  0.0586
 1942POPE   C3B21979  15.261   1.752   5.136  0.1564 -0.1460 -0.1437
 1942POPE   C4B21980  15.536   1.502   5.461  0.0304  0.1874  0.0171
 1943POPE   NH321981  13.237  11.715   3.250  0.0413 -0.1172  0.0242
 1943POPE   PO421982  13.565  11.704   3.434  0.2074  0.0555 -0.3008
 1943POPE   GL121983  13.759  11.984   3.562 -0.1167  0.2126 -0.1249
 1943POPE   GL221984  13.470  12.119   3.617  0.3231 -0.2547 -0.1412
 1943POPE   C1A21985  13.891  11.926   3.973  0.2886  0.0041 -0.0177
 1943POPE   D2A21986  13.864  12.100   4.435 -0.0116  0.1960 -0.1185
 1943POPE   C3A21987  14.011  11.994   4.830 -0.2320 -0.0435  0.1198
 1943POPE   C4A21988  14.285  11.918   5.306  0.3279 -0.0705  0.0097
 1943POPE   C1B21989  13.437  12.301   4.004  0.0642  0.1862 -0.0403
 1943POPE   C2B21990  13.412  12.329   4.375 -0.2323  0.3102  0.0824
 1943POPE   C3B21991  13.579  12.194   4.856 -0.1184 -0.2758  0.0771
 1943POPE   C4B21992  13.753  12.094   5.262  0.2119  0.4566 -0.2214
 1944POPE   NH321993   0.438   9.709   4.100 -0.0583  0.2716  0.0452
 1944POPE   PO421994   0.442   9.403   4.034  0.1006 -0.0500  0.0854
 1944POPE   GL121995   0.426   9.344   4.395 -0.4676 -0.5223  0.0869
 1944POPE   GL221996   0.180   9.075   4.319 -0.2468 -0.0622 -0.1551
 1944POPE   C1A21997   0.330   9.690   4.632 -0.0852 -0.2374  0.0804
 1944POPE   D2A21998   0.423  10.102   4.928  0.4752  0.0304 -0.0507
 1944POPE   C3A21999   0.353  10.398   5.278 -0.2530  0.1954  0.1836
 1944POPE   C4A22000   0.342  10.875   5.319 -0.2917 -0.1119  0.1287
 1944POPE   C1B22001   0.033   8.928   4.617  0.1108 -0.1918 -0.0531
 1944POPE   C2B22002  -0.077   8.764   4.980 -0.4869  0.0193  0.2419
 1944POPE   C3B22003  -0.156   8.551   5.417  0.1164 -0.4116  0.0229
 1944POPE   C4B22004  -0.125   8.482   5.919 -0.0590  0.1252  0.2410
 1945POPE   NH322005   0.698  24.822   3.544  0.0746  0.0009  0.1214
 1945POPE   PO422006   0.482  24.927   3.294 -0.0651  0.2404  0.5814
 1945POPE   GL122007   0.175  24.563   3.429  0.0798  0.0978 -0.1124
 1945POPE   GL222008   0.221  24.784   3.681  0.2073  0.0417 -0.3463
 1945POPE   C1A22009  -0.070  24.442   3.737 -0.0214  0.0823  0.1319
 1945POPE   D2A22010  -0.075  24.617   4.241  0.1178  0.2770 -0.0211
 1945POPE   C3A22011  -0.075  24.324   4.656  0.0517  0.0268 -0.0235
 1945POPE   C4A22012   0.099  24.403   5.102  0.0905  0.0765 -0.2723
 1945POPE   C1B22013   0.310  24.585   4.022 -0.0520 -0.0706  0.3671
 1945POPE   C2B22014   0.361  24.367   4.349  0.0660  0.2216  0.2345
 1945POPE   C3B22015   0.481  24.034   4.727 -0.1675  0.1480  0.0492
 1945POPE   C4B22016   0.441  23.524   4.796 -0.2307  0.0113  0.0165
 1946POPE   NH322017   3.124   0.959   3.288  0.3303  0.1578 -0.2164
 1946POPE   PO422018   3.408   1.039   3.527  0.1665 -0.1860 -0.1252
 1946POPE   GL122019   3.324   1.159   3.872 -0.1595  0.0649  0.3843
 1946POPE   GL222020   3.360   0.903   3.976  0.2155  0.1867  0.0410
 1946POPE   C1A22021   3.054   1.326   4.102 -0.0361 -0.1406  0.0114
 1946POPE   D2A22022   2.583   1.438   4.322 -0.4287  0.0278 -0.0614
 1946POPE   C3A22023   2.740   1.428   4.778 -0.2531 -0.1005  0.4440
 1946POPE   C4A22024   2.591   1.598   5.149  0.0496 -0.0110 -0.1449
 1946POPE   C1B22025   3.151   0.942   4.294 -0.4420 -0.0159 -0.2018
 1946POPE   C2B22026   3.054   0.839   4.731 -0.1786  0.0564  0.1774
 1946POPE   C3B22027   2.965   0.793   5.197  0.1153  0.1380 -0.0744
 1946POPE   C4B22028   2.905   0.924   5.687 -0.2263  0.0141 -0.0414
 1947POPE   NH322029  26.067   9.067   3.551 -0.1595 -0.1592 -0.0500
 1947POPE   PO422030  26.274   9.306   3.751 -0.0380 -0.1457 -0.0211
 1947POPE   GL122031  26.253   9.197   4.172  0.4696 -0.1207 -0.2401
 1947POPE   GL222032  26.438   8.979   4.184 -0.1217 -0.2864  0.2042
 1947POPE   C1A22033  26.238   9.355   4.570 -0.1780  0.1062  0.0989
 1947POPE   D2A22034  26.404   9.533   4.992 -0.0704 -0.1133 -0.0067
 1947POPE   C3A22035  26.241   9.944   5.230  0.0065 -0.3621  0.1309
 1947POPE   C4A22036  26.388  10.381   5.449 -0.0714 -0.1677  0.1189
 1947POPE   C1B22037  26.512   8.954   4.542 -0.0609  0.0764  0.2436
 1947POPE   C2B22038  26.586   9.022   4.930 -0.2793 -0.0454 -0.3265
 1947POPE   C3B22039  26.724   9.301   5.304  0.2007 -0.0692  0.0471
 1947POPE   C4B22040  26.802   9.509   5.664 -0.1789  0.1888  0.1395
 1948POPE   NH322041   2.288   7.726   3.526 -0.3076 -0.0722 -0.1546
 1948POPE   PO422042   2.345   7.411   3.573 -0.1079  0.0098 -0.3293
 1948POPE   GL122043   2.322   7.264   3.898  0.0158  0.0130  0.1069
 1948POPE   GL222044   2.573   7.110   3.877 -0.0554  0.2667  0.2712
 1948POPE   C1A22045   2.344   7.317   4.372  0.0624  0.1866 -0.2216
 1948POPE   D2A22046   2.413   7.763   4.565  0.1015  0.0824 -0.0532
 1948POPE   C3A22047   2.747   7.839   4.816 -0.1674 -0.4206 -0.3290
 1948POPE   C4A22048   3.268   7.850   4.826  0.1381  0.0723 -0.0886
 1948POPE   C1B22049   2.754   7.081   4.206 -0.0219  0.0757  0.2606
 1948POPE   C2B22050   2.700   7.054   4.583 -0.0556  0.0411 -0.1061
 1948POPE   C3B22051   2.723   6.948   5.054 -0.0669 -0.1150  0.1030
 1948POPE   C4B22052   2.813   6.854   5.520  0.1980 -0.0411 -0.2463
 1949POPE   NH322053   9.249   3.871   3.457  0.0517  0.0233 -0.1092
 1949POPE   PO422054   9.082   4.163   3.394  0.0208 -0.0913  0.2532
 1949POPE   GL122055   8.848   4.042   3.749  0.0969 -0.0946 -0.1809
 1949POPE   GL222056   9.126   3.936   3.904  0.0304 -0.0917  0.0502
 1949POPE   C1A22057   8.674   4.253   4.054 -0.2148  0.1321 -0.0302
 1949POPE   D2A22058   8.444   4.176   4.530  0.2348  0.1559  0.0422
 1949POPE   C3A22059   8.404   3.902   4.919  0.1504 -0.1063 -0.4659
 1949POPE   C4A22060   8.306   3.646   5.394 -0.0035  0.1703 -0.2809
 1949POPE   C1B22061   9.301   4.072   4.231  0.0024  0.4291 -0.1052
 1949POPE   C2B22062   9.468   4.063   4.617 -0.0285  0.0761  0.2552
 1949POPE   C3B22063   9.819   4.095   4.949  0.3820 -0.1164 -0.0713
 1949POPE   C4B22064  10.158   4.074   5.267  0.1122 -0.1256  0.0338
 1950POPE   NH322065   6.744  20.540   3.637 -0.3406  0.0435 -0.1849
 1950POPE   PO422066   6.581  20.821   3.496 -0.2430  0.1721 -0.3050
 1950POPE   GL122067   6.604  21.047   3.846  0.3095 -0.1492  0.4468
 1950POPE   GL222068   6.561  20.816   4.051  0.1402 -0.0901  0.2361
 1950POPE   C1A22069   6.869  21.133   4.138  0.0388  0.0103  0.0275
 1950POPE   D2A22070   7.161  21.329   4.426 -0.0100 -0.0244  0.4928
 1950POPE   C3A22071   6.858  21.091   4.634  0.0793 -0.0198 -0.0170
 1950POPE   C4A22072   6.724  21.189   5.079  0.0224  0.0696  0.3532
 1950POPE   C1B22073   6.347  20.926   4.320 -0.0244 -0.2066 -0.2131
 1950POPE   C2B22074   6.309  21.025   4.727 -0.0300  0.1370 -0.1545
 1950POPE   C3B22075   6.226  21.026   5.219 -0.0759 -0.0138 -0.0318
 1950POPE   C4B22076   6.052  21.205   5.637  0.0451  0.0872  0.1879
 1951POPE   NH322077   5.448  26.058   3.640  0.2579  0.0666 -0.0713
 1951POPE   PO422078   5.334  26.010   3.936  0.0667 -0.1809 -0.0630
 1951POPE   GL122079   4.976  25.775   4.007  0.2468 -0.2076 -0.4339
 1951POPE   GL222080   5.224  25.695   4.093 -0.2703  0.0938  0.2341
 1951POPE   C1A22081   4.702  25.532   4.283 -0.0320 -0.3922 -0.0303
 1951POPE   D2A22082   4.331  25.183   4.430 -0.0387 -0.1684 -0.1973
 1951POPE   C3A22083   3.945  25.252   4.722 -0.3485 -0.0994 -0.0285
 1951POPE   C4A22084   3.792  25.422   5.166 -0.0744 -0.0200 -0.0616
 1951POPE   C1B22085   5.128  25.670   4.446 -0.0162  0.2105 -0.2847
 1951POPE   C2B22086   4.838  25.562   4.746  0.2166  0.1826 -0.2050
 1951POPE   C3B22087   4.688  25.603   5.205 -0.4168 -0.2383 -0.0361
 1951POPE   C4B22088   4.611  25.548   5.717 -0.2408 -0.2351  0.1907
 1952POPE   NH322089  16.569  14.631   3.099 -0.2942  0.1631  0.0990
 1952POPE   PO422090  16.837  14.398   3.184 -0.2627  0.0886  0.4003
 1952POPE   GL122091  16.834  14.367   3.543 -0.0533  0.2294  0.2900
 1952POPE   GL222092  17.115  14.299   3.638 -0.2820  0.0199  0.1420
 1952POPE   C1A22093  16.690  14.010   3.818 -0.0300  0.0349  0.2740
 1952POPE   D2A22094  16.681  14.227   4.298  0.1855  0.0959  0.2350
 1952POPE   C3A22095  16.558  13.974   4.674  0.2241  0.0259 -0.1754
 1952POPE   C4A22096  16.101  13.960   4.899  0.0330  0.3398  0.1816
 1952POPE   C1B22097  17.192  13.993   3.808  0.0838  0.1746  0.2242
 1952POPE   C2B22098  17.246  13.667   4.043 -0.2831  0.2031 -0.1224
 1952POPE   C3B22099  17.235  13.370   4.499 -0.1484  0.1704 -0.0651
 1952POPE   C4B22100  17.219  13.126   4.894  0.0616  0.1683 -0.2971
 1953POPE   NH322101  22.392   1.303   3.648  0.0479  0.2054 -0.1787
 1953POPE   PO422102  22.579   1.603   3.587  0.1295  0.0359 -0.1304
 1953POPE   GL122103  22.607   1.590   4.051 -0.0886 -0.2161  0.3827
 1953POPE   GL222104  22.843   1.400   3.980  0.0780  0.1637 -0.1731
 1953POPE   C1A22105  22.493   1.710   4.464  0.0817 -0.0078 -0.0727
 1953POPE   D2A22106  22.502   1.776   4.938 -0.1690  0.1206 -0.0600
 1953POPE   C3A22107  22.389   1.992   5.301  0.1529  0.0443  0.2431
 1953POPE   C4A22108  22.092   2.134   5.645 -0.0136 -0.2332  0.0247
 1953POPE   C1B22109  22.851   1.237   4.308 -0.0687 -0.0461  0.2851
 1953POPE   C2B22110  22.884   0.926   4.617 -0.0269 -0.1039 -0.2495
 1953POPE   C3B22111  22.929   0.600   4.941  0.0360 -0.1678 -0.0702
 1953POPE   C4B22112  22.981   0.152   5.198  0.1126 -0.1660  0.0657
 1954POPE   NH322113   6.698   3.965   3.182 -0.1189  0.4331 -0.1418
 1954POPE   PO422114   6.711   3.647   3.337 -0.0345 -0.1001  0.4463
 1954POPE   GL122115   6.505   3.642   3.699 -0.2739  0.2122 -0.2218
 1954POPE   GL222116   6.751   3.685   3.812  0.0987  0.0235  0.3059
 1954POPE   C1A22117   6.169   3.631   3.917 -0.0242 -0.3680  0.0676
 1954POPE   D2A22118   5.948   3.650   4.332 -0.0414  0.0241  0.0419
 1954POPE   C3A22119   5.944   3.737   4.812 -0.2031  0.0632 -0.0749
 1954POPE   C4A22120   5.859   3.966   5.227 -0.1409 -0.0909 -0.1218
 1954POPE   C1B22121   6.832   3.809   4.126 -0.1671  0.0357 -0.4314
 1954POPE   C2B22122   6.919   3.769   4.572 -0.2505  0.2791  0.4382
 1954POPE   C3B22123   6.826   3.806   5.066 -0.1761  0.1250 -0.1226
 1954POPE   C4B22124   6.835   3.928   5.559  0.1385 -0.2223  0.1162
 1955POPE   NH322125   8.975   3.202   3.087 -0.0536 -0.0663 -0.0024
 1955POPE   PO422126   8.782   3.111   3.376 -0.2889 -0.0047 -0.0434
 1955POPE   GL122127   9.024   3.011   3.700  0.0825 -0.6937  0.0801
 1955POPE   GL222128   8.893   3.252   3.871 -0.1372 -0.0756  0.1948
 1955POPE   C1A22129   8.950   2.650   3.913 -0.2045  0.1242  0.3919
 1955POPE   D2A22130   8.792   2.405   4.302  0.0247  0.0005  0.0813
 1955POPE   C3A22131   8.493   2.551   4.633 -0.5481 -0.0884  0.3052
 1955POPE   C4A22132   8.609   2.862   5.044 -0.1795  0.0639  0.0949
 1955POPE   C1B22133   9.073   3.326   4.203  0.3083 -0.4336  0.0709
 1955POPE   C2B22134   9.105   3.699   4.408 -0.0688 -0.1020 -0.3529
 1955POPE   C3B22135   8.961   4.129   4.517 -0.0267  0.0655  0.0034
 1955POPE   C4B22136   8.828   4.600   4.404 -0.0896 -0.0487 -0.0098
 1956POPE   NH322137   3.976   3.045   3.344 -0.1168  0.0650  0.1698
 1956POPE   PO422138   4.217   3.280   3.451  0.0011  0.2049  0.1162
 1956POPE   GL122139   4.171   3.423   3.855 -0.0410  0.2931  0.1825
 1956POPE   GL222140   4.217   3.673   3.848  0.1562 -0.1180 -0.1700
 1956POPE   C1A22141   4.292   3.251   4.225  0.0702  0.0174 -0.1787
 1956POPE   D2A22142   4.574   3.569   4.447 -0.2920  0.2472  0.0842
 1956POPE   C3A22143   4.822   3.808   4.762  0.1576  0.3610 -0.1431
 1956POPE   C4A22144   4.640   4.192   4.975  0.2562 -0.0755 -0.0268
 1956POPE   C1B22145   4.297   3.834   4.101  0.1077 -0.2675 -0.2879
 1956POPE   C2B22146   4.273   4.045   4.490 -0.0190 -0.0099  0.2788
 1956POPE   C3B22147   4.115   4.225   4.950 -0.0276  0.0968 -0.1399
 1956POPE   C4B22148   4.137   4.509   5.364  0.3519 -0.0056  0.0470
 1957POPE   NH322149  20.588  17.846   3.172  0.0275 -0.1642 -0.1300
 1957POPE   PO422150  20.579  17.573   3.456  0.4499 -0.0791 -0.0919
 1957POPE   GL122151  20.295  17.332   3.794 -0.2426 -0.0238  0.2052
 1957POPE   GL222152  20.202  17.545   3.855  0.0403 -0.4108 -0.0775
 1957POPE   C1A22153  20.327  17.152   4.260  0.3469 -0.1412  0.0085
 1957POPE   D2A22154  20.253  17.139   4.770  0.0017 -0.0204  0.1364
 1957POPE   C3A22155  20.512  17.016   5.102  0.2919  0.3435 -0.2803
 1957POPE   C4A22156  20.661  17.033   5.546 -0.2204 -0.2014 -0.2674
 1957POPE   C1B22157  20.234  17.641   4.221  0.4023 -0.1340 -0.0525
 1957POPE   C2B22158  20.338  17.618   4.637  0.1117 -0.4402 -0.1417
 1957POPE   C3B22159  20.540  17.862   5.029 -0.3213  0.0655  0.0123
 1957POPE   C4B22160  20.788  18.194   5.291  0.1182 -0.0272  0.1226
 1958POPE   NH322161  18.490   2.218   3.435  0.1129 -0.2570  0.3271
 1958POPE   PO422162  18.804   2.146   3.301 -0.0535 -0.0596 -0.0661
 1958POPE   GL122163  19.125   2.172   3.633 -0.2841 -0.0381  0.3001
 1958POPE   GL222164  18.817   2.055   3.756  0.2461  0.2960 -0.0589
 1958POPE   C1A22165  19.263   2.334   3.976  0.1914  0.0389  0.0788
 1958POPE   D2A22166  19.630   2.277   4.260  0.1339 -0.1503  0.1590
 1958POPE   C3A22167  19.549   2.486   4.681 -0.0960 -0.1111  0.0035
 1958POPE   C4A22168  19.636   2.561   5.174  0.1943  0.1013 -0.3120
 1958POPE   C1B22169  18.887   2.115   4.120  0.3806  0.1737  0.0884
 1958POPE   C2B22170  18.922   2.221   4.546 -0.1875 -0.1705  0.2574
 1958POPE   C3B22171  18.953   2.398   5.003 -0.0205  0.0375 -0.2942
 1958POPE   C4B22172  19.220   2.406   5.418 -0.4074  0.0174  0.0646
 1959POPE   NH322173   6.753  16.399   3.042 -0.2936  0.4047 -0.4340
 1959POPE   PO422174   6.839  16.677   3.178  0.2614  0.1208 -0.0679
 1959POPE   GL122175   6.792  16.551   3.542 -0.1523 -0.3326  0.0727
 1959POPE   GL222176   6.505  16.531   3.440 -0.1246  0.0707  0.3182
 1959POPE   C1A22177   6.812  16.851   3.887  0.1185 -0.0019 -0.4099
 1959POPE   D2A22178   6.653  17.155   4.271 -0.1812  0.3567 -0.1331
 1959POPE   C3A22179   6.456  17.227   4.680  0.1481 -0.2038  0.0479
 1959POPE   C4A22180   6.414  17.219   5.166 -0.0178 -0.1334 -0.1391
 1959POPE   C1B22181   6.350  16.498   3.748  0.2173  0.1938  0.0517
 1959POPE   C2B22182   6.103  16.457   4.041 -0.0165  0.1317  0.1365
 1959POPE   C3B22183   5.893  16.188   4.301  0.0800 -0.3673  0.1285
 1959POPE   C4B22184   5.981  15.959   4.687 -0.1538 -0.0398  0.1372
 1960POPE   NH322185  10.241   1.780   3.065 -0.4387 -0.0403  0.0818
 1960POPE   PO422186  10.391   2.043   3.205 -0.1260  0.0736  0.2545
 1960POPE   GL122187  10.494   1.946   3.606 -0.4136 -0.0034 -0.1781
 1960POPE   GL222188  10.239   1.841   3.669  0.2909 -0.4459  0.2959
 1960POPE   C1A22189  10.676   1.992   4.104  0.1222 -0.3506  0.2448
 1960POPE   D2A22190  10.514   2.128   4.576 -0.1527  0.0924  0.2531
 1960POPE   C3A22191  10.737   2.051   4.970  0.1370 -0.1995  0.0184
 1960POPE   C4A22192  11.073   1.960   5.367  0.1491  0.0500 -0.0534
 1960POPE   C1B22193  10.194   1.771   4.044  0.0403  0.1237 -0.0025
 1960POPE   C2B22194  10.137   1.707   4.448 -0.0751  0.0479 -0.0096
 1960POPE   C3B22195  10.199   1.828   4.859 -0.0158  0.1867 -0.0472
 1960POPE   C4B22196  10.316   1.832   5.306  0.0738  0.0224  0.0453
 1961POPE   NH322197  10.264  18.810   3.483 -0.1096  0.2957 -0.1923
 1961POPE   PO422198  10.637  18.907   3.429  0.0697  0.0988 -0.0453
 1961POPE   GL122199  10.435  19.211   3.759 -0.0768  0.1283  0.0818
 1961POPE   GL222200  10.633  18.978   3.938  0.0391  0.1729 -0.0562
 1961POPE   C1A22201  10.503  19.435   4.093 -0.1010 -0.0915 -0.0280
 1961POPE   D2A22202  10.605  19.384   4.577  0.1912  0.1704 -0.0516
 1961POPE   C3A22203  10.886  19.739   4.583 -0.0207  0.0161  0.1050
 1961POPE   C4A22204  11.033  19.460   4.997  0.0988 -0.0170 -0.0385
 1961POPE   C1B22205  10.802  19.077   4.268 -0.4283  0.1772  0.1630
 1961POPE   C2B22206  11.073  19.215   4.575  0.1085  0.0261  0.0329
 1961POPE   C3B22207  11.464  19.130   5.004 -0.1795  0.4140  0.0435
 1961POPE   C4B22208  11.731  18.950   5.409 -0.1035 -0.2235  0.3734
 1962POPE   NH322209   5.562  19.942   3.404  0.0135 -0.1388 -0.0026
 1962POPE   PO422210   5.489  19.831   3.745 -0.0591  0.0574 -0.0301
 1962POPE   GL122211   5.561  19.979   4.050  0.0360 -0.2906 -0.0197
 1962POPE   GL222212   5.435  20.265   4.141  0.3960 -0.0639 -0.0028
 1962POPE   C1A22213   5.859  20.230   4.226 -0.2529  0.0990 -0.2594
 1962POPE   D2A22214   6.189  20.512   4.368  0.0633 -0.1682  0.0536
 1962POPE   C3A22215   6.253  20.409   4.781 -0.0798 -0.1271 -0.2677
 1962POPE   C4A22216   6.129  20.530   5.316  0.2670  0.0806 -0.2034
 1962POPE   C1B22217   5.361  20.323   4.458 -0.0515 -0.2397 -0.1911
 1962POPE   C2B22218   5.445  20.352   4.837  0.1011 -0.0068 -0.0860
 1962POPE   C3B22219   5.469  20.180   5.249 -0.1075 -0.1413  0.2467
 1962POPE   C4B22220   5.164  20.247   5.643 -0.0883 -0.2196 -0.0971
 1963POPE   NH322221   0.598  12.598   3.239 -0.0994  0.1938 -0.0861
 1963POPE   PO422222   0.469  12.328   3.061 -0.1902 -0.0078  0.0651
 1963POPE   GL122223   0.552  11.974   3.311 -0.3444 -0.1636  0.2149
 1963POPE   GL222224   0.807  12.179   3.425 -0.2217 -0.2470  0.0066
 1963POPE   C1A22225   0.451  11.829   3.726 -0.1484  0.1711 -0.2597
 1963POPE   D2A22226   0.403  11.549   4.122 -0.0458  0.4413  0.1702
 1963POPE   C3A22227   0.394  11.472   4.607  0.3827  0.0103  0.0426
 1963POPE   C4A22228   0.284  11.064   4.843  0.0102 -0.0393 -0.1837
 1963POPE   C1B22229   0.854  12.070   3.724 -0.0824 -0.1119  0.2984
 1963POPE   C2B22230   0.875  11.836   4.065  0.0776  0.0412 -0.0925
 1963POPE   C3B22231   0.860  11.690   4.583 -0.0999 -0.0179  0.2377
 1963POPE   C4B22232   0.837  11.606   5.053 -0.0203 -0.0452 -0.1459
 1964POPE   NH322233   1.582  11.369   3.576 -0.0814  0.2148 -0.3716
 1964POPE   PO422234   1.258  11.270   3.583 -0.2324  0.1049  0.1446
 1964POPE   GL122235   1.099  11.115   3.870  0.0671 -0.1101  0.2308
 1964POPE   GL222236   0.890  11.322   3.988  0.0724  0.2940  0.3134
 1964POPE   C1A22237   1.156  10.930   4.285 -0.0216 -0.1752 -0.1124
 1964POPE   D2A22238   1.188  10.775   4.822 -0.1085 -0.0253  0.1127
 1964POPE   C3A22239   1.251  10.650   5.195 -0.1878  0.1482  0.0648
 1964POPE   C4A22240   1.730  10.642   5.379 -0.1039 -0.0756  0.0278
 1964POPE   C1B22241   0.752  11.227   4.292  0.0856 -0.0178 -0.0737
 1964POPE   C2B22242   0.765  10.982   4.619 -0.1352  0.0136 -0.1809
 1964POPE   C3B22243   0.703  10.717   4.980 -0.0899 -0.2230 -0.1773
 1964POPE   C4B22244   0.901  10.338   5.318  0.0985  0.0948  0.2755
 1965POPE   NH322245  15.899  23.122   3.632 -0.1783  0.0662  0.1377
 1965POPE   PO422246  16.065  23.465   3.644 -0.2849 -0.0977  0.3366
 1965POPE   GL122247  15.910  23.650   4.038  0.0565 -0.2503 -0.4583
 1965POPE   GL222248  15.999  23.324   4.099 -0.1997  0.5381  0.0865
 1965POPE   C1A22249  15.699  23.837   4.461 -0.1359 -0.1328 -0.0725
 1965POPE   D2A22250  15.783  24.311   4.610 -0.2100 -0.1594 -0.0674
 1965POPE   C3A22251  15.730  24.416   5.065 -0.1017 -0.3726 -0.0310
 1965POPE   C4A22252  15.959  24.589   5.500  0.1680  0.0475 -0.0828
 1965POPE   C1B22253  16.047  23.329   4.479 -0.0689  0.2515 -0.1404
 1965POPE   C2B22254  16.047  23.506   4.833  0.0477 -0.2089  0.0028
 1965POPE   C3B22255  15.986  23.333   5.307  0.2942 -0.5006  0.1970
 1965POPE   C4B22256  15.814  23.135   5.743 -0.0131  0.2105  0.0842
 1966POPE   NH322257  18.688  26.166   3.547 -0.1922  0.1607 -0.2573
 1966POPE   PO422258  18.861  25.892   3.375  0.0707 -0.0890  0.2427
 1966POPE   GL122259  18.825  25.720   3.659  0.0288  0.1182  0.0400
 1966POPE   GL222260  18.559  25.828   3.810  0.1518  0.1404  0.0240
 1966POPE   C1A22261  19.036  25.508   3.912 -0.0857 -0.1348 -0.1918
 1966POPE   D2A22262  19.108  25.158   4.309  0.2041 -0.2868 -0.2223
 1966POPE   C3A22263  19.347  25.023   4.688 -0.0846 -0.1312 -0.1533
 1966POPE   C4A22264  19.456  25.217   5.166  0.2250 -0.3252  0.2039
 1966POPE   C1B22265  18.668  25.702   4.146  0.0790  0.1180  0.2344
 1966POPE   C2B22266  18.836  25.557   4.456  0.0854  0.1329  0.1740
 1966POPE   C3B22267  18.881  25.143   4.772  0.0467 -0.0989  0.1728
 1966POPE   C4B22268  19.064  24.908   5.178 -0.0943 -0.1000  0.0687
 1967POPE   NH322269   9.533  10.794   3.386  0.0361 -0.2306  0.3611
 1967POPE   PO422270   9.282  11.043   3.263 -0.0219  0.0568 -0.3290
 1967POPE   GL122271   9.158  11.187   3.729 -0.3717  0.1412 -0.2118
 1967POPE   GL222272   9.390  10.996   3.788 -0.3499 -0.1162 -0.0295
 1967POPE   C1A22273   8.836  10.994   3.932 -0.2762  0.1358  0.1761
 1967POPE   D2A22274   8.752  11.058   4.470 -0.3102  0.1345  0.0499
 1967POPE   C3A22275   8.375  11.001   4.701 -0.0027  0.0696 -0.1681
 1967POPE   C4A22276   7.929  10.901   4.826 -0.0166 -0.0346  0.0487
 1967POPE   C1B22277   9.375  10.811   4.101 -0.0869 -0.2373 -0.2591
 1967POPE   C2B22278   9.374  10.700   4.510  0.1270  0.2042 -0.1141
 1967POPE   C3B22279   9.390  10.610   5.019 -0.1874  0.2620 -0.1826
 1967POPE   C4B22280   9.294  10.649   5.474 -0.2500 -0.1587  0.1033
 1968POPE   NH322281   5.780  13.133   2.958  0.4467 -0.0818 -0.2041
 1968POPE   PO422282   5.663  13.510   3.005  0.0137  0.0602  0.0212
 1968POPE   GL122283   5.733  13.806   3.244 -0.0539 -0.0944  0.0783
 1968POPE   GL222284   5.592  13.769   3.459  0.0639 -0.1061  0.2857
 1968POPE   C1A22285   6.094  13.915   3.442 -0.0932  0.1905 -0.0166
 1968POPE   D2A22286   6.479  13.660   3.666  0.0186  0.3409  0.1592
 1968POPE   C3A22287   6.918  13.622   3.840  0.0080  0.2206  0.0185
 1968POPE   C4A22288   7.329  13.871   3.814  0.0214  0.0630 -0.0355
 1968POPE   C1B22289   5.593  13.846   3.816  0.1299  0.0854 -0.1691
 1968POPE   C2B22290   5.800  13.867   4.177  0.1980 -0.1912 -0.0172
 1968POPE   C3B22291   5.943  13.859   4.644  0.1853  0.1032  0.1099
 1968POPE   C4B22292   6.372  13.669   4.874  0.2676  0.3952  0.1979
 1969POPE   NH322293  22.341  25.411   3.305  0.2539 -0.0486 -0.0584
 1969POPE   PO422294  22.033  25.619   3.399  0.0910  0.1385  0.2067
 1969POPE   GL122295  22.043  25.708   3.780  0.1872 -0.0958 -0.2775
 1969POPE   GL222296  21.830  25.842   3.842 -0.0556  0.3776  0.4037
 1969POPE   C1A22297  22.220  26.025   4.035 -0.3023 -0.0017 -0.0810
 1969POPE   D2A22298  22.288  26.136   4.536 -0.2847  0.3264 -0.1279
 1969POPE   C3A22299  22.546  26.412   4.670 -0.1886  0.0398 -0.4976
 1969POPE   C4A22300  22.772  26.828   4.735  0.0086  0.2938 -0.2663
 1969POPE   C1B22301  21.752  25.961   4.196  0.0840  0.1111  0.4131
 1969POPE   C2B22302  21.786  25.958   4.572 -0.0618  0.2102 -0.0097
 1969POPE   C3B22303  21.909  26.101   5.083  0.3854  0.2591 -0.3067
 1969POPE   C4B22304  21.900  26.337   5.534  0.2132  0.2211 -0.0587
 1970POPE   NH322305  14.500   7.264   3.377  0.1663 -0.2053 -0.0755
 1970POPE   PO422306  14.598   7.608   3.387 -0.1308 -0.3790  0.1110
 1970POPE   GL122307  14.475   7.775   3.707 -0.0720 -0.0477 -0.0707
 1970POPE   GL222308  14.672   7.595   3.880  0.1414 -0.0694 -0.2619
 1970POPE   C1A22309  14.472   8.025   4.077  0.1594  0.1251  0.1099
 1970POPE   D2A22310  14.581   8.223   4.570 -0.0207 -0.1843  0.0640
 1970POPE   C3A22311  14.337   8.160   5.038  0.2325 -0.0081  0.1303
 1970POPE   C4A22312  14.159   8.332   5.516  0.1073 -0.0830 -0.0389
 1970POPE   C1B22313  14.740   7.721   4.222  0.0911 -0.1246 -0.3325
 1970POPE   C2B22314  14.854   7.814   4.613  0.4201 -0.0405  0.0089
 1970POPE   C3B22315  14.622   7.687   5.029  0.1791  0.1065 -0.2154
 1970POPE   C4B22316  14.763   7.522   5.463  0.1129 -0.2219  0.0622
 1971POPE   NH322317  26.957  13.072   3.633 -0.2153  0.1009  0.0943
 1971POPE   PO422318  27.079  12.787   3.814 -0.0504  0.1485 -0.0551
 1971POPE   GL122319  26.900  12.590   4.132 -0.0250 -0.0796 -0.0856
 1971POPE   GL222320  27.132  12.426   4.097  0.3070  0.1367  0.0165
 1971POPE   C1A22321  26.879  12.601   4.530  0.1904  0.0927 -0.0313
 1971POPE   D2A22322  26.989  12.568   5.044  0.1285  0.0967  0.2306
 1971POPE   C3A22323  27.427  12.542   5.225 -0.2193  0.1353  0.0830
 1971POPE   C4A22324  27.877  12.711   5.416 -0.0191 -0.1122  0.3023
 1971POPE   C1B22325  27.163  12.236   4.427 -0.0636  0.0643  0.1313
 1971POPE   C2B22326  27.178  12.108   4.838  0.1163 -0.0478  0.0989
 1971POPE   C3B22327  27.316  12.090   5.318 -0.2229  0.2785  0.2097
 1971POPE   C4B22328  27.442  12.335   5.665 -0.0496 -0.0021  0.3078
 1972POPE   NH322329  24.121   3.695   3.594 -0.0064 -0.0635 -0.1478
 1972POPE   PO422330  23.946   3.375   3.633 -0.1203  0.2497  0.0276
 1972POPE   GL122331  23.683   3.447   3.970  0.2265  0.0528  0.1732
 1972POPE   GL222332  23.905   3.639   4.062  0.0478 -0.0236  0.0509
 1972POPE   C1A22333  23.534   3.248   4.356 -0.1726 -0.0311  0.1164
 1972POPE   D2A22334  23.525   3.180   4.821  0.2985  0.1666 -0.0530
 1972POPE   C3A22335  23.362   2.893   5.143 -0.3844 -0.0010  0.2023
 1972POPE   C4A22336  23.060   2.621   5.399 -0.2775 -0.0841  0.1502
 1972POPE   C1B22337  23.835   3.582   4.435  0.0695  0.1060  0.2238
 1972POPE   C2B22338  23.675   3.669   4.840 -0.2805  0.2730 -0.0736
 1972POPE   C3B22339  23.635   3.802   5.303 -0.1123  0.0522 -0.1253
 1972POPE   C4B22340  23.747   3.627   5.704 -0.3382 -0.1012 -0.0050
 1973POPE   NH322341   4.684  20.431   3.448  0.1167 -0.3179  0.1390
 1973POPE   PO422342   4.421  20.624   3.542 -0.0810  0.3871 -0.2112
 1973POPE   GL122343   4.512  20.616   3.972 -0.0062  0.0089 -0.3249
 1973POPE   GL222344   4.201  20.580   4.026  0.0271 -0.0296  0.2111
 1973POPE   C1A22345   4.533  20.819   4.295 -0.2444 -0.3646  0.4247
 1973POPE   D2A22346   4.343  20.554   4.654 -0.1145  0.4204  0.0576
 1973POPE   C3A22347   4.473  20.348   5.058 -0.0530 -0.1282 -0.0154
 1973POPE   C4A22348   4.987  20.290   5.164  0.1991  0.0461 -0.0520
 1973POPE   C1B22349   4.088  20.336   4.279 -0.3215  0.2865 -0.2210
 1973POPE   C2B22350   4.079  20.125   4.558  0.0229 -0.3381 -0.0472
 1973POPE   C3B22351   3.856  19.887   4.952  0.0875 -0.0660  0.0509
 1973POPE   C4B22352   3.540  19.739   5.235 -0.1876 -0.2479 -0.2537
 1974POPE   NH322353  19.444  22.006   3.954 -0.1127  0.0260  0.0401
 1974POPE   PO422354  19.119  22.136   4.005  0.2517  0.0526 -0.1998
 1974POPE   GL122355  18.877  22.326   4.358 -0.0291 -0.0592 -0.0413
 1974POPE   GL222356  19.100  22.139   4.418 -0.1639  0.0886  0.2696
 1974POPE   C1A22357  18.767  22.310   4.782  0.2547  0.0593 -0.1153
 1974POPE   D2A22358  18.535  22.564   5.132  0.0678 -0.1543  0.0009
 1974POPE   C3A22359  18.820  22.894   5.405 -0.0966  0.0206  0.1286
 1974POPE   C4A22360  19.018  23.232   5.232  0.2135 -0.1920 -0.1011
 1974POPE   C1B22361  19.223  22.204   4.751 -0.0033  0.0584  0.1775
 1974POPE   C2B22362  19.420  22.091   5.124 -0.2742 -0.3452  0.0269
 1974POPE   C3B22363  19.630  21.990   5.509  0.1211 -0.1530  0.0160
 1974POPE   C4B22364  20.036  21.795   5.563  0.1953  0.1393  0.0062
 1975POPE   NH322365   7.592   5.785   2.902  0.0998  0.2610 -0.2550
 1975POPE   PO422366   7.691   5.495   3.090 -0.0996  0.2515  0.1803
 1975POPE   GL122367   7.651   5.372   3.485 -0.0427 -0.3540  0.2087
 1975POPE   GL222368   7.472   5.161   3.395 -0.2894  0.2626  0.1513
 1975POPE   C1A22369   7.815   5.508   3.856 -0.1047 -0.0956  0.0449
 1975POPE   D2A22370   7.818   5.666   4.360  0.0962  0.1930  0.2151
 1975POPE   C3A22371   7.548   5.701   4.737  0.2675 -0.1607 -0.2684
 1975POPE   C4A22372   7.202   5.953   5.024 -0.2388  0.2102 -0.0123
 1975POPE   C1B22373   7.650   4.935   3.678  0.2445  0.0860 -0.0348
 1975POPE   C2B22374   7.830   4.817   4.028 -0.0254 -0.0207  0.0975
 1975POPE   C3B22375   7.833   4.793   4.581  0.0449  0.0689  0.3605
 1975POPE   C4B22376   7.802   4.881   5.062  0.0073  0.0078  0.4235
 1976POPE   NH322377  14.189  18.651   3.263 -0.0543  0.2651  0.2348
 1976POPE   PO422378  14.496  18.601   3.422 -0.2471 -0.4415  0.0338
 1976POPE   GL122379  14.511  18.650   3.756  0.1293  0.0720  0.0977
 1976POPE   GL222380  14.417  18.363   3.798 -0.3064  0.1338 -0.1077
 1976POPE   C1A22381  14.824  18.748   4.077 -0.1385 -0.0436 -0.2882
 1976POPE   D2A22382  15.160  18.797   4.428  0.3877 -0.0568  0.0386
 1976POPE   C3A22383  15.222  18.742   4.911  0.1520  0.1640 -0.1966
 1976POPE   C4A22384  15.242  18.903   5.347 -0.0205 -0.0638  0.0157
 1976POPE   C1B22385  14.604  18.285   4.127 -0.2570 -0.3254  0.3076
 1976POPE   C2B22386  14.720  18.372   4.525  0.2119  0.1095  0.1102
 1976POPE   C3B22387  14.833  18.435   4.938  0.1780  0.0612  0.2413
 1976POPE   C4B22388  14.724  18.862   5.246  0.1057  0.1936 -0.1207
 1977POPE   NH322389   4.334   8.353   3.078  0.0147 -0.2873 -0.0742
 1977POPE   PO422390   4.596   8.615   3.161 -0.2536  0.0712 -0.0424
 1977POPE   GL122391   4.915   8.718   3.500  0.0520  0.1262  0.3198
 1977POPE   GL222392   4.857   8.428   3.516 -0.1411  0.1364 -0.2447
 1977POPE   C1A22393   5.079   8.771   3.932  0.0711 -0.0801 -0.1275
 1977POPE   D2A22394   5.000   8.896   4.410  0.2510 -0.0207 -0.2828
 1977POPE   C3A22395   5.038   8.915   4.927 -0.0765 -0.0544  0.2971
 1977POPE   C4A22396   5.099   8.679   5.368 -0.2880  0.0737 -0.0489
 1977POPE   C1B22397   4.887   8.308   3.863  0.1168 -0.3642  0.3685
 1977POPE   C2B22398   4.807   8.435   4.285 -0.0540  0.3866  0.1140
 1977POPE   C3B22399   4.654   8.619   4.786 -0.0108 -0.1876  0.2954
 1977POPE   C4B22400   4.444   8.607   5.192 -0.2428 -0.0863  0.0696
 1978POPE   NH322401   8.126   0.618   3.122  0.1891 -0.2222  0.0142
 1978POPE   PO422402   8.236   0.660   3.439  0.5326  0.0252 -0.0797
 1978POPE   GL122403   8.088   0.530   3.836  0.4188 -0.0073 -0.3559
 1978POPE   GL222404   7.867   0.725   3.886  0.1651 -0.1187 -0.2398
 1978POPE   C1A22405   8.277   0.318   4.172 -0.0893 -0.5893 -0.0608
 1978POPE   D2A22406   8.240   0.227   4.643  0.1632  0.0827 -0.1394
 1978POPE   C3A22407   8.291   0.523   4.989  0.1204 -0.1060  0.3023
 1978POPE   C4A22408   8.179   0.627   5.415  0.2176  0.0014 -0.0144
 1978POPE   C1B22409   7.999   0.897   4.181  0.1979 -0.4634  0.0295
 1978POPE   C2B22410   7.939   1.154   4.507  0.0422 -0.2270  0.1605
 1978POPE   C3B22411   8.025   1.422   4.918 -0.4067  0.2031  0.2250
 1978POPE   C4B22412   7.938   1.641   5.349  0.1705 -0.0301  0.2812
 1979POPE   NH322413  13.409  10.131   3.498  0.1752 -0.3184  0.2315
 1979POPE   PO422414  13.647  10.392   3.345 -0.0577 -0.1646 -0.0115
 1979POPE   GL122415  13.681  10.628   3.655 -0.1334  0.1633  0.0451
 1979POPE   GL222416  13.847  10.900   3.664 -0.0845 -0.1217  0.3161
 1979POPE   C1A22417  13.682  10.615   4.076 -0.0590 -0.0121  0.0168
 1979POPE   D2A22418  13.806  10.669   4.576  0.0801 -0.1807 -0.0324
 1979POPE   C3A22419  14.238  10.681   4.864  0.1002 -0.2217 -0.0669
 1979POPE   C4A22420  14.234  10.948   5.199  0.0895 -0.2387  0.3812
 1979POPE   C1B22421  13.916  11.064   3.947 -0.1625 -0.0072 -0.1358
 1979POPE   C2B22422  13.827  11.091   4.365 -0.0341 -0.0982  0.1740
 1979POPE   C3B22423  13.734  11.081   4.828  0.1685 -0.0665  0.3169
 1979POPE   C4B22424  13.659  10.745   5.186  0.2005  0.2094 -0.3477
 1980POPE   NH322425  25.931   3.451   4.242  0.0553 -0.0403  0.0591
 1980POPE   PO422426  26.280   3.375   4.171  0.2105  0.0411 -0.5745
 1980POPE   GL122427  26.646   3.439   4.477  0.1664 -0.0714 -0.1073
 1980POPE   GL222428  26.645   3.137   4.316  0.0925  0.1181 -0.2212
 1980POPE   C1A22429  26.631   3.482   4.916  0.1486 -0.4069 -0.3524
 1980POPE   D2A22430  26.675   3.578   5.362  0.0165 -0.0978 -0.2672
 1980POPE   C3A22431  27.072   3.622   5.537  0.1577  0.0639 -0.3792
 1980POPE   C4A22432  27.258   4.083   5.794 -0.1061 -0.1190 -0.5352
 1980POPE   C1B22433  26.734   2.828   4.481  0.0280 -0.0129  0.2609
 1980POPE   C2B22434  26.751   2.692   4.859 -0.0476 -0.0932 -0.2117
 1980POPE   C3B22435  26.757   2.544   5.310  0.1602  0.0993  0.0596
 1980POPE   C4B22436  26.688   2.602   5.804 -0.2100  0.1980  0.2704
 1981POPE   NH322437  16.735   5.024   3.465  0.1701  0.0445  0.2132
 1981POPE   PO422438  17.044   4.922   3.422  0.2305  0.1530 -0.0305
 1981POPE   GL122439  17.014   4.825   3.805  0.0862  0.0148  0.5574
 1981POPE   GL222440  17.259   4.972   3.961 -0.1994  0.2841  0.1274
 1981POPE   C1A22441  17.143   4.632   4.230  0.2982 -0.0205  0.4576
 1981POPE   D2A22442  16.767   4.288   4.219 -0.1884  0.0355 -0.0624
 1981POPE   C3A22443  16.528   4.358   4.612 -0.2340 -0.4677  0.0035
 1981POPE   C4A22444  16.253   4.213   5.002  0.1323 -0.0926 -0.2934
 1981POPE   C1B22445  17.234   5.054   4.334 -0.0445 -0.1728  0.1926
 1981POPE   C2B22446  17.204   5.226   4.668  0.0882 -0.0059  0.2667
 1981POPE   C3B22447  17.002   5.348   5.150 -0.0672 -0.0687 -0.2713
 1981POPE   C4B22448  16.834   5.507   5.577 -0.0301  0.1155 -0.0689
 1982POPE   NH322449   9.444   9.841   3.196 -0.0660 -0.0548  0.0655
 1982POPE   PO422450   9.335   9.506   3.234  0.2555 -0.0334 -0.0573
 1982POPE   GL122451   9.228   9.454   3.578 -0.1769 -0.0150 -0.2051
 1982POPE   GL222452   9.246   9.097   3.442 -0.0421  0.2256 -0.2030
 1982POPE   C1A22453   9.304   9.597   4.000 -0.1113  0.2550  0.3156
 1982POPE   D2A22454   9.322   9.617   4.561  0.2776  0.4233 -0.3651
 1982POPE   C3A22455   9.226   9.543   5.036  0.4803 -0.1114  0.1291
 1982POPE   C4A22456   8.821   9.341   5.266  0.1665  0.1526  0.0136
 1982POPE   C1B22457   9.166   8.888   3.803 -0.1227 -0.2456  0.1548
 1982POPE   C2B22458   9.283   8.685   4.165  0.0684 -0.2201  0.0749
 1982POPE   C3B22459   9.339   8.629   4.650  0.0109  0.1445 -0.2120
 1982POPE   C4B22460   9.468   8.640   5.087 -0.0432 -0.0741  0.1021
 1983POPE   NH322461  21.137   7.303   3.227 -0.0048  0.1005  0.1286
 1983POPE   PO422462  21.016   7.227   3.531  0.1947 -0.2357  0.2153
 1983POPE   GL122463  21.005   7.600   3.664  0.1982 -0.5678  0.1359
 1983POPE   GL222464  20.721   7.532   3.784 -0.0090 -0.0033 -0.3144
 1983POPE   C1A22465  21.080   7.869   3.979  0.1287 -0.1341  0.3738
 1983POPE   D2A22466  21.225   7.840   4.502  0.2025 -0.2663  0.0174
 1983POPE   C3A22467  21.363   7.615   4.905 -0.1044 -0.4337 -0.1415
 1983POPE   C4A22468  21.512   7.510   5.381 -0.2554 -0.1249 -0.0077
 1983POPE   C1B22469  20.867   7.467   4.102 -0.2750  0.1206  0.3566
 1983POPE   C2B22470  20.814   7.394   4.502  0.1410  0.0324 -0.0785
 1983POPE   C3B22471  20.836   7.670   4.891 -0.1305 -0.0353  0.3575
 1983POPE   C4B22472  20.996   8.025   5.055  0.0252  0.0785  0.1299
 1984POPE   NH322473  24.407   0.979   3.495 -0.3764 -0.1329  0.0904
 1984POPE   PO422474  24.146   1.108   3.337 -0.1238 -0.0676 -0.0507
 1984POPE   GL122475  23.889   0.957   3.567 -0.1135 -0.0563  0.0512
 1984POPE   GL222476  24.056   0.714   3.623 -0.2332  0.1979 -0.0559
 1984POPE   C1A22477  23.569   0.828   3.942  0.0550 -0.3772 -0.0636
 1984POPE   D2A22478  23.606   0.296   3.980 -0.1269  0.1275  0.0011
 1984POPE   C3A22479  23.639  -0.118   3.923  0.1010 -0.0300 -0.0326
 1984POPE   C4A22480  24.144  -0.122   3.927  0.2847 -0.1513 -0.5737
 1984POPE   C1B22481  24.082   0.668   4.011  0.1720 -0.3366  0.0285
 1984POPE   C2B22482  24.273   0.544   4.400 -0.3259 -0.1414 -0.1396
 1984POPE   C3B22483  24.320   0.487   4.828 -0.1204 -0.1822 -0.1527
 1984POPE   C4B22484  24.234   0.663   5.312 -0.0023  0.0312 -0.0604
 1985POPE   NH322485  12.632  14.901   3.320  0.0216 -0.1522 -0.3297
 1985POPE   PO422486  12.975  14.883   3.331  0.0821  0.0655  0.2563
 1985POPE   GL122487  12.867  14.897   3.725 -0.1118  0.3293 -0.1273
 1985POPE   GL222488  13.076  15.135   3.765 -0.1460 -0.1196 -0.0748
 1985POPE   C1A22489  12.759  14.870   4.161  0.2603  0.0746 -0.0569
 1985POPE   D2A22490  12.645  14.934   4.629 -0.0881 -0.2072 -0.3598
 1985POPE   C3A22491  12.740  14.790   5.085  0.0461 -0.2245  0.0199
 1985POPE   C4A22492  12.860  14.661   5.554 -0.0436  0.1483 -0.1295
 1985POPE   C1B22493  13.057  15.253   4.142 -0.2706 -0.1021  0.2299
 1985POPE   C2B22494  13.064  15.214   4.543 -0.1290 -0.2120 -0.1203
 1985POPE   C3B22495  12.848  15.229   4.953  0.0683 -0.2664  0.4505
 1985POPE   C4B22496  12.586  15.241   5.369 -0.3228  0.0904  0.0123
 1986POPE   NH322497   5.394  12.543   3.158 -0.0774  0.1173 -0.0807
 1986POPE   PO422498   5.461  12.924   3.301 -0.0484  0.2614 -0.0058
 1986POPE   GL122499   5.352  12.827   3.733 -0.0078 -0.0456  0.0125
 1986POPE   GL222500   5.264  13.145   3.680  0.2565  0.3354  0.0331
 1986POPE   C1A22501   5.434  12.736   4.179  0.0946  0.3710  0.0852
 1986POPE   D2A22502   5.514  12.586   4.719  0.1737  0.0954  0.0923
 1986POPE   C3A22503   5.579  12.891   4.997 -0.0077  0.1767 -0.0542
 1986POPE   C4A22504   5.729  13.132   5.396  0.2167 -0.1400 -0.1277
 1986POPE   C1B22505   5.269  13.172   4.060  0.2924 -0.2083  0.2934
 1986POPE   C2B22506   5.278  13.112   4.481 -0.1351  0.2825  0.4345
 1986POPE   C3B22507   5.081  12.856   4.901 -0.2013  0.2418  0.3433
 1986POPE   C4B22508   4.653  12.756   5.161 -0.3651 -0.4029 -0.0004
 1987POPE   NH322509  18.107   6.064   3.163 -0.1556  0.0300 -0.4377
 1987POPE   PO422510  17.779   6.047   3.194 -0.0412  0.0510 -0.0047
 1987POPE   GL122511  17.807   5.983   3.526  0.1062 -0.2219 -0.2115
 1987POPE   GL222512  18.100   6.035   3.634 -0.3361 -0.2693  0.0538
 1987POPE   C1A22513  17.444   5.914   3.771  0.0381 -0.0438 -0.1371
 1987POPE   D2A22514  17.396   5.754   4.189  0.1926  0.3684 -0.1126
 1987POPE   C3A22515  17.568   5.364   4.391 -0.2995 -0.2315  0.0538
 1987POPE   C4A22516  17.814   5.000   4.223  0.2231 -0.0233  0.2973
 1987POPE   C1B22517  17.910   5.886   3.922 -0.0478  0.2085 -0.0508
 1987POPE   C2B22518  17.888   6.019   4.304 -0.3265  0.0603 -0.0800
 1987POPE   C3B22519  18.015   6.238   4.681  0.0183 -0.0467 -0.1162
 1987POPE   C4B22520  18.379   6.411   4.995  0.2492 -0.1993  0.0803
 1988POPE   NH322521   5.250  11.341   3.216  0.1155  0.1619  0.1503
 1988POPE   PO422522   4.929  11.164   3.321 -0.2036 -0.0127 -0.1331
 1988POPE   GL122523   4.840  11.359   3.652 -0.1071  0.2751  0.0525
 1988POPE   GL222524   4.818  11.039   3.705  0.3885  0.0806 -0.4845
 1988POPE   C1A22525   4.823  11.481   4.083  0.0781 -0.0562  0.1062
 1988POPE   D2A22526   4.645  11.602   4.507  0.1310 -0.1356  0.2289
 1988POPE   C3A22527   4.896  11.847   4.812  0.1918 -0.0671  0.1879
 1988POPE   C4A22528   5.318  12.114   4.883  0.3024 -0.2991  0.3649
 1988POPE   C1B22529   4.734  10.876   4.054  0.0964  0.1981 -0.5019
 1988POPE   C2B22530   4.706  11.027   4.438 -0.1350 -0.1430  0.0769
 1988POPE   C3B22531   4.683  11.306   4.886  0.1239  0.1519  0.0012
 1988POPE   C4B22532   4.650  11.537   5.356 -0.0123 -0.1353 -0.2369
 1989POPE   NH322533  13.216   0.873   3.951 -0.0573  0.2924 -0.0136
 1989POPE   PO422534  13.343   0.554   3.926  0.0511 -0.0126  0.2635
 1989POPE   GL122535  13.333   0.619   4.354  0.3435 -0.4361  0.3646
 1989POPE   GL222536  13.562   0.766   4.482 -0.0678 -0.0805  0.1725
 1989POPE   C1A22537  13.007   0.866   4.534  0.0350  0.1627 -0.0778
 1989POPE   D2A22538  12.934   1.101   4.997  0.2254 -0.2394 -0.1136
 1989POPE   C3A22539  12.803   1.452   5.219  0.2934  0.2335 -0.1265
 1989POPE   C4A22540  12.617   1.759   5.531 -0.0830 -0.1049  0.1070
 1989POPE   C1B22541  13.546   0.728   4.831 -0.1454 -0.1975 -0.0279
 1989POPE   C2B22542  13.418   0.766   5.229  0.3472  0.1288  0.2116
 1989POPE   C3B22543  13.550   0.765   5.766  0.1973 -0.1835  0.2114
 1989POPE   C4B22544  13.709   0.359   6.016  0.0154  0.0759 -0.2280
 1990POPE   NH322545  18.476  22.982   4.034 -0.0767 -0.0039  0.3932
 1990POPE   PO422546  18.701  23.099   3.773 -0.1601 -0.0753 -0.0617
 1990POPE   GL122547  18.924  23.177   4.127  0.2258 -0.2726  0.0029
 1990POPE   GL222548  18.905  23.449   4.145  0.0715 -0.0915 -0.1131
 1990POPE   C1A22549  19.040  23.099   4.496  0.2397 -0.0436  0.3771
 1990POPE   D2A22550  19.334  23.090   4.885  0.0733  0.1407  0.0834
 1990POPE   C3A22551  19.411  22.943   5.312 -0.0381 -0.3070  0.1600
 1990POPE   C4A22552  19.241  22.472   5.541  0.0702 -0.2247 -0.0138
 1990POPE   C1B22553  18.711  23.529   4.426  0.2020 -0.2806 -0.1073
 1990POPE   C2B22554  18.499  23.472   4.734  0.1013  0.0632 -0.1726
 1990POPE   C3B22555  18.571  23.776   5.037 -0.1482  0.1693  0.0777
 1990POPE   C4B22556  18.537  24.277   5.253 -0.2796 -0.3347  0.0910
 1991POPE   NH322557   6.217  15.565   3.302 -0.0013 -0.2356  0.1688
 1991POPE   PO422558   6.517  15.732   3.368 -0.1732  0.0506  0.1529
 1991POPE   GL122559   6.379  15.785   3.822  0.1008  0.0337  0.4596
 1991POPE   GL222560   6.588  16.045   3.695  0.0982  0.1903 -0.1254
 1991POPE   C1A22561   6.582  15.542   4.160  0.0050 -0.1314 -0.1302
 1991POPE   D2A22562   6.552  15.282   4.578 -0.1502 -0.2120 -0.0447
 1991POPE   C3A22563   6.686  15.424   4.965 -0.2791 -0.2496  0.1009
 1991POPE   C4A22564   6.574  15.403   5.427 -0.3721  0.0308 -0.0675
 1991POPE   C1B22565   6.851  16.017   3.923 -0.1684  0.3376  0.0843
 1991POPE   C2B22566   7.032  15.791   4.176  0.1148  0.2040  0.0948
 1991POPE   C3B22567   6.990  15.472   4.535  0.2785 -0.1373  0.0636
 1991POPE   C4B22568   6.996  15.033   4.875  0.2297  0.0730 -0.0290
 1992DLPE   NH322569   1.182  25.523   3.584 -0.2075 -0.3642 -0.0970
 1992DLPE   PO422570   0.961  25.333   3.744  0.2366  0.3530  0.3726
 1992DLPE   GL122571   0.833  25.415   4.127 -0.1549  0.0309  0.4732
 1992DLPE   GL222572   0.948  25.110   4.202  0.0113  0.1499  0.3918
 1992DLPE   C1A22573   0.609  25.553   4.520  0.4081 -0.1717  0.0867
 1992DLPE   D2A22574   0.549  25.396   4.987  0.0735 -0.1292 -0.0309
 1992DLPE   D3A22575   0.303  25.254   5.328  0.2608 -0.0837 -0.2266
 1992DLPE   C4A22576   0.129  24.937   5.000 -0.0731  0.2981  0.2395
 1992DLPE   C1B22577   0.838  25.148   4.672  0.0040  0.2229  0.0198
 1992DLPE   D2B22578   0.786  25.020   5.160  0.3536  0.2196 -0.1208
 1992DLPE   D3B22579   1.009  24.713   5.479 -0.1575 -0.1346  0.0877
 1992DLPE   C4B22580   0.477  24.829   5.484  0.0765 -0.0176 -0.0116
 1993DLPE   NH322581  11.286   2.189   3.493  0.1173 -0.0621  0.1903
 1993DLPE   PO422582  11.600   2.357   3.410  0.2422 -0.0500  0.0072
 1993DLPE   GL122583  11.669   2.481   3.763 -0.2235 -0.0976  0.2170
 1993DLPE   GL222584  11.790   2.182   3.777 -0.0913  0.2426  0.1767
 1993DLPE   C1A22585  11.842   2.675   4.097 -0.2140 -0.0898 -0.0538
 1993DLPE   D2A22586  12.210   2.792   4.411  0.3106  0.1272 -0.2135
 1993DLPE   D3A22587  12.318   2.971   4.826  0.2059 -0.3171 -0.2535
 1993DLPE   C4A22588  11.867   3.050   5.029 -0.0307 -0.2315  0.2811
 1993DLPE   C1B22589  11.575   2.103   4.148  0.3485  0.0750 -0.2661
 1993DLPE   D2B22590  11.498   1.731   4.540 -0.3002  0.4816 -0.0019
 1993DLPE   D3B22591  11.260   1.686   4.985 -0.2229  0.3420  0.0159
 1993DLPE   C4B22592  11.439   1.622   5.432 -0.0561 -0.0722 -0.2817
 1994DLPE   NH322593   4.571  14.485   3.211 -0.0441  0.1777  0.0564
 1994DLPE   PO422594   4.358  14.623   3.417  0.0331  0.2983  0.0252
 1994DLPE   GL122595   4.310  14.692   3.724  0.0872  0.0484 -0.2141
 1994DLPE   GL222596   4.285  14.879   3.903 -0.3392 -0.6526  0.1809
 1994DLPE   C1A22597   4.145  14.462   4.131  0.1130  0.0636  0.2636
 1994DLPE   D2A22598   4.141  14.364   4.646 -0.1367 -0.1548 -0.3221
 1994DLPE   D3A22599   4.261  14.302   5.110  0.0475 -0.0582 -0.1398
 1994DLPE   C4A22600   4.015  14.566   5.365 -0.0469 -0.0935 -0.0595
 1994DLPE   C1B22601   4.403  14.896   4.267  0.0718 -0.2626  0.1354
 1994DLPE   D2B22602   4.297  15.167   4.719  0.2194  0.0507  0.2618
 1994DLPE   D3B22603   4.665  15.145   4.863 -0.1200  0.2819 -0.0978
 1994DLPE   C4B22604   4.778  15.224   5.308  0.0251 -0.0205 -0.2546
 1995DLPE   NH322605  24.818  24.872   3.564 -0.0643  0.4126 -0.1425
 1995DLPE   PO422606  24.859  24.526   3.637 -0.0970  0.1045  0.1630
 1995DLPE   GL122607  24.800  24.613   3.994 -0.0162  0.0269 -0.3038
 1995DLPE   GL222608  25.058  24.700   4.021  0.0037  0.0390 -0.2080
 1995DLPE   C1A22609  24.752  24.614   4.466 -0.0603 -0.0620  0.2386
 1995DLPE   D2A22610  24.752  24.634   5.036 -0.2632  0.4338  0.0170
 1995DLPE   D3A22611  24.988  24.880   5.388  0.0303  0.2051 -0.1489
 1995DLPE   C4A22612  24.993  24.974   5.893 -0.0279  0.0172 -0.1244
 1995DLPE   C1B22613  25.174  24.894   4.444  0.1321 -0.0815 -0.3478
 1995DLPE   D2B22614  25.264  24.788   4.935  0.0499  0.1211 -0.0198
 1995DLPE   D3B22615  25.188  24.375   5.206 -0.1370 -0.0607  0.2856
 1995DLPE   C4B22616  24.879  24.323   5.553 -0.1817  0.0354  0.2413
 1996DLPE   NH322617   6.228   5.188   3.023 -0.2172 -0.0719  0.2766
 1996DLPE   PO422618   5.913   5.101   3.066  0.1450  0.1152 -0.0896
 1996DLPE   GL122619   5.977   4.933   3.381  0.3531 -0.1087 -0.2934
 1996DLPE   GL222620   6.266   4.865   3.438  0.3268  0.0935  0.1862
 1996DLPE   C1A22621   5.812   4.950   3.840 -0.2713 -0.2517  0.2655
 1996DLPE   D2A22622   6.078   5.051   4.233 -0.0703 -0.1267 -0.0776
 1996DLPE   D3A22623   6.051   4.878   4.592  0.0173 -0.2461 -0.1454
 1996DLPE   C4A22624   6.406   4.823   4.916 -0.2646  0.4764 -0.1341
 1996DLPE   C1B22625   6.410   5.137   3.737 -0.2099  0.5315  0.0734
 1996DLPE   D2B22626   6.559   5.239   4.244 -0.1102 -0.1816  0.1336
 1996DLPE   D3B22627   6.692   5.157   4.679  0.0762 -0.3191 -0.1160
 1996DLPE   C4B22628   6.962   5.125   4.994 -0.1719  0.0560 -0.2396
 1997DLPE   NH322629   0.784  25.877   3.628 -0.1114 -0.0500  0.3455
 1997DLPE   PO422630   0.869  25.851   3.959 -0.2580  0.0133  0.1352
 1997DLPE   GL122631   0.681  25.970   4.322  0.1713 -0.0315  0.0942
 1997DLPE   GL222632   0.912  25.832   4.430  0.0516 -0.3855  0.4596
 1997DLPE   C1A22633   0.506  26.333   4.646  0.2412 -0.2002 -0.0368
 1997DLPE   D2A22634   0.497  26.585   5.045  0.1434 -0.1643  0.1628
 1997DLPE   D3A22635   0.619  26.123   5.052 -0.2779 -0.0794 -0.2241
 1997DLPE   C4A22636   0.491  25.827   5.354  0.3885  0.1196  0.3392
 1997DLPE   C1B22637   0.946  25.681   4.892 -0.1497  0.0947 -0.1600
 1997DLPE   D2B22638   0.947  25.474   5.343  0.0830  0.0895 -0.3158
 1997DLPE   D3B22639   1.006  25.920   5.423  0.1157 -0.2522  0.1664
 1997DLPE   C4B22640   0.686  26.296   5.520 -0.0721 -0.0746  0.4299
 1998DLPE   NH322641   6.777  12.917   3.009  0.0599  0.2991  0.0812
 1998DLPE   PO422642   6.537  12.636   3.067  0.0577  0.3698  0.4121
 1998DLPE   GL122643   6.467  12.657   3.428  0.0946 -0.3176  0.1170
 1998DLPE   GL222644   6.214  12.594   3.454  0.1325  0.3780  0.2112
 1998DLPE   C1A22645   6.658  12.774   3.762  0.1171 -0.2221 -0.1409
 1998DLPE   D2A22646   6.823  12.908   4.238  0.1146  0.2714  0.2027
 1998DLPE   D3A22647   6.651  12.797   4.613  0.1230 -0.1581 -0.1170
 1998DLPE   C4A22648   6.437  12.555   4.240 -0.2104  0.1066  0.1069
 1998DLPE   C1B22649   6.109  12.550   3.864  0.0234  0.1539 -0.1322
 1998DLPE   D2B22650   5.923  12.607   4.341 -0.1136 -0.1193  0.0025
 1998DLPE   D3B22651   6.114  12.854   4.645 -0.3425  0.1623 -0.2662
 1998DLPE   C4B22652   6.402  12.643   5.027  0.1083  0.3060 -0.1301
 1999DLPE   NH322653  20.580  11.834   3.325  0.0800  0.1011 -0.1468
 1999DLPE   PO422654  20.887  11.837   3.528  0.3322 -0.0745  0.3987
 1999DLPE   GL122655  20.921  11.580   3.911  0.1849 -0.0569 -0.2943
 1999DLPE   GL222656  20.712  11.379   3.777 -0.0249 -0.0836 -0.1220
 1999DLPE   C1A22657  20.628  11.575   4.248 -0.2253 -0.1651 -0.0411
 1999DLPE   D2A22658  20.440  11.489   4.747 -0.2320  0.1174 -0.1129
 1999DLPE   D3A22659  20.052  11.233   4.741 -0.1536 -0.0145 -0.2217
 1999DLPE   C4A22660  19.789  11.373   5.132 -0.5320  0.1891  0.4949
 1999DLPE   C1B22661  20.549  11.052   4.088  0.1388  0.2850 -0.0244
 1999DLPE   D2B22662  20.430  10.945   4.536 -0.3814  0.1775  0.0049
 1999DLPE   D3B22663  20.583  10.668   4.844 -0.2041 -0.0036 -0.1994
 1999DLPE   C4B22664  20.197  10.364   4.796 -0.0592 -0.1975  0.1398
 2000DLPE   NH322665   6.029  12.342   3.045 -0.2495 -0.1216  0.0165
 2000DLPE   PO422666   5.925  12.653   3.014  0.0031  0.1561  0.1213
 2000DLPE   GL122667   5.910  12.891   3.430 -0.4429  0.1159  0.1211
 2000DLPE   GL222668   5.793  12.603   3.460 -0.1408  0.1646  0.0010
 2000DLPE   C1A22669   6.207  13.016   3.720 -0.0563  0.0910 -0.0340
 2000DLPE   D2A22670   6.189  13.038   4.183 -0.2727  0.3089  0.0603
 2000DLPE   D3A22671   6.376  13.267   4.575  0.0179  0.1385  0.2761
 2000DLPE   C4A22672   6.783  13.237   4.709 -0.1045 -0.1726 -0.1267
 2000DLPE   C1B22673   5.597  12.425   3.827 -0.2460 -0.2180 -0.3329
 2000DLPE   D2B22674   5.312  12.224   4.189 -0.1207 -0.0027 -0.0742
 2000DLPE   D3B22675   5.038  12.495   3.954  0.1551 -0.0446  0.0208
 2000DLPE   C4B22676   4.637  12.382   3.697  0.0253 -0.1149  0.0916
 2001DLPE   NH322677  18.659  15.777   3.382  0.0847 -0.0174  0.0998
 2001DLPE   PO422678  18.448  15.510   3.485  0.1671  0.0229  0.2483
 2001DLPE   GL122679  18.303  15.405   3.842  0.0231 -0.2158  0.1798
 2001DLPE   GL222680  18.576  15.613   3.940 -0.2846  0.2326  0.1534
 2001DLPE   C1A22681  18.260  15.174   4.195 -0.2046  0.1777  0.4472
 2001DLPE   D2A22682  18.038  14.955   4.528 -0.0035 -0.2670 -0.1141
 2001DLPE   D3A22683  17.949  15.080   4.938  0.0987  0.4046 -0.2740
 2001DLPE   C4A22684  18.122  14.882   5.332 -0.0831 -0.0931 -0.1348
 2001DLPE   C1B22685  18.792  15.954   4.242  0.0651  0.0514  0.3542
 2001DLPE   D2B22686  19.211  16.160   4.303  0.1780  0.1493  0.0868
 2001DLPE   D3B22687  19.402  16.118   4.738  0.2159  0.1486  0.0924
 2001DLPE   C4B22688  19.619  16.487   5.021  0.0243  0.0724  0.0322
 2002DLPE   NH322689   4.849  10.768   3.032  0.0566 -0.1767 -0.0667
 2002DLPE   PO422690   4.932  10.404   3.058  0.1074 -0.1893  0.0350
 2002DLPE   GL122691   5.009  10.408   3.472 -0.1870 -0.2640 -0.0641
 2002DLPE   GL222692   4.806  10.575   3.565  0.0416  0.0953 -0.1264
 2002DLPE   C1A22693   5.346  10.161   3.702 -0.1480  0.0231  0.1126
 2002DLPE   D2A22694   5.468   9.860   4.029 -0.2026 -0.2151  0.1026
 2002DLPE   D3A22695   5.665   9.431   4.131  0.0484 -0.0813  0.1882
 2002DLPE   C4A22696   5.280   9.243   4.116 -0.1515 -0.0927  0.4162
 2002DLPE   C1B22697   5.014  10.560   3.906 -0.1028 -0.1127  0.1457
 2002DLPE   D2B22698   5.336  10.368   4.236 -0.0434  0.2670  0.3380
 2002DLPE   D3B22699   5.287  10.305   4.657 -0.0602  0.3146  0.0432
 2002DLPE   C4B22700   5.095  10.725   4.403 -0.1360 -0.2176  0.1799
 2003DLPE   NH322701  24.861  24.054   3.573  0.1956  0.0597  0.1226
 2003DLPE   PO422702  24.531  23.917   3.550  0.1266 -0.0648  0.1663
 2003DLPE   GL122703  24.449  23.934   3.921  0.0225  0.1251 -0.1354
 2003DLPE   GL222704  24.449  23.616   4.015 -0.1832  0.0689 -0.5753
 2003DLPE   C1A22705  24.655  24.096   4.272  0.3081 -0.0071  0.2312
 2003DLPE   D2A22706  24.901  24.133   4.607 -0.1764  0.1840 -0.1096
 2003DLPE   D3A22707  25.345  24.226   4.681  0.3208  0.5083  0.1769
 2003DLPE   C4A22708  25.530  23.962   5.113  0.1377 -0.0035 -0.4694
 2003DLPE   C1B22709  24.286  23.537   4.418 -0.1411  0.4751 -0.0735
 2003DLPE   D2B22710  23.991  23.297   4.712  0.0269 -0.3003  0.1996
 2003DLPE   D3B22711  24.308  23.280   5.015  0.2107  0.2176 -0.2970
 2003DLPE   C4B22712  24.541  23.194   4.653  0.0779  0.1473 -0.1951
 2004DLPE   NH322713  22.099  24.708   3.139  0.3362 -0.3965  0.2665
 2004DLPE   PO422714  22.019  24.983   3.282 -0.0191 -0.0480 -0.2257
 2004DLPE   GL122715  21.990  25.186   3.693 -0.2588  0.0707  0.0648
 2004DLPE   GL222716  22.262  25.212   3.767 -0.1405  0.0824 -0.0331
 2004DLPE   C1A22717  21.745  25.004   3.957  0.2025 -0.0501 -0.0016
 2004DLPE   D2A22718  21.727  24.641   4.327 -0.0941 -0.0293  0.4505
 2004DLPE   D3A22719  22.014  24.236   4.379 -0.0532 -0.1086  0.1694
 2004DLPE   C4A22720  22.256  24.103   4.733 -0.0475  0.0061 -0.0188
 2004DLPE   C1B22721  22.286  25.360   4.178  0.0463 -0.1733 -0.1605
 2004DLPE   D2B22722  22.227  25.676   4.578 -0.1213 -0.0845 -0.0216
 2004DLPE   D3B22723  22.244  25.187   4.653  0.1054 -0.1149  0.1457
 2004DLPE   C4B22724  21.830  25.090   4.517  0.2340 -0.0804  0.0325
 2005DLPE   NH322725  17.329   1.388   3.549  0.3889  0.2747 -0.2920
 2005DLPE   PO422726  17.660   1.429   3.686  0.0022  0.1679 -0.2625
 2005DLPE   GL122727  17.581   1.395   4.080 -0.0397  0.3154  0.0149
 2005DLPE   GL222728  17.291   1.537   4.010 -0.1080  0.0694 -0.0330
 2005DLPE   C1A22729  17.629   1.041   4.256 -0.2337 -0.2790  0.1811
 2005DLPE   D2A22730  17.605   0.950   4.752  0.0401 -0.0259 -0.2486
 2005DLPE   D3A22731  17.233   0.839   5.037  0.1441 -0.2340  0.0784
 2005DLPE   C4A22732  16.850   1.191   4.977  0.1022  0.0454 -0.0229
 2005DLPE   C1B22733  17.239   1.769   4.428  0.0276 -0.3026 -0.1965
 2005DLPE   D2B22734  16.977   1.758   4.838  0.0980 -0.2377  0.1858
 2005DLPE   D3B22735  17.144   1.960   5.206 -0.2866  0.1669  0.4125
 2005DLPE   C4B22736  16.932   1.530   5.418 -0.2823 -0.1271  0.0288
 2006DLPE   NH322737  20.636  19.039   3.581  0.0031 -0.0666  0.2155
 2006DLPE   PO422738  20.962  19.119   3.659 -0.2389 -0.1219  0.1436
 2006DLPE   GL122739  20.670  19.178   4.035 -0.1788  0.2113 -0.2848
 2006DLPE   GL222740  20.924  19.417   4.063  0.0114  0.3619 -0.0013
 2006DLPE   C1A22741  20.663  19.029   4.506 -0.0762 -0.1602  0.0860
 2006DLPE   D2A22742  20.862  19.192   4.904  0.2020 -0.1139  0.4305
 2006DLPE   D3A22743  20.987  19.544   5.087  0.2695  0.0478  0.0119
 2006DLPE   C4A22744  21.178  19.981   5.129 -0.0043 -0.0913  0.1575
 2006DLPE   C1B22745  21.100  19.257   4.412 -0.3198 -0.1541  0.1740
 2006DLPE   D2B22746  21.406  19.115   4.831  0.1951  0.0021 -0.0385
 2006DLPE   D3B22747  21.291  19.230   5.282 -0.1280  0.0711  0.0688
 2006DLPE   C4B22748  21.365  19.591   5.485 -0.2030 -0.2111 -0.2844
 2007DLPE   NH322749   0.655   7.316   4.057  0.0106  0.5184 -0.0039
 2007DLPE   PO422750   0.424   7.218   3.799 -0.2076 -0.0141  0.0690
 2007DLPE   GL122751   0.279   6.959   4.106  0.0300 -0.1303 -0.0716
 2007DLPE   GL222752   0.048   6.880   3.957  0.1387 -0.0011 -0.0435
 2007DLPE   C1A22753   0.305   7.135   4.488  0.1198 -0.0936 -0.0165
 2007DLPE   D2A22754   0.376   7.337   4.888 -0.2509  0.0205  0.1649
 2007DLPE   D3A22755   0.591   7.551   4.530 -0.0219 -0.1705 -0.1029
 2007DLPE   C4A22756   0.260   7.892   4.512 -0.1066  0.0108 -0.2758
 2007DLPE   C1B22757  -0.131   7.085   4.249  0.0478  0.1584  0.1299
 2007DLPE   D2B22758  -0.077   7.194   4.749 -0.1991 -0.3537  0.0060
 2007DLPE   D3B22759  -0.206   7.045   5.141  0.3288  0.0816 -0.0103
 2007DLPE   C4B22760  -0.248   7.287   5.584  0.0120  0.2707  0.1813
 2008DLPE   NH322761  26.302   3.750   3.868  0.1580 -0.2805  0.0484
 2008DLPE   PO422762  26.046   3.966   3.844 -0.0224 -0.1049  0.2605
 2008DLPE   GL122763  25.843   4.034   4.213 -0.0729  0.0692  0.1574
 2008DLPE   GL222764  26.149   3.916   4.307 -0.1407 -0.1483 -0.0352
 2008DLPE   C1A22765  25.604   3.916   4.539 -0.2943 -0.0551 -0.3533
 2008DLPE   D2A22766  25.555   3.746   5.053 -0.2314  0.2889 -0.1065
 2008DLPE   D3A22767  25.588   3.855   5.443  0.1686 -0.0796 -0.3110
 2008DLPE   C4A22768  25.474   3.995   5.800 -0.1238  0.0515 -0.2897
 2008DLPE   C1B22769  26.061   3.676   4.713  0.3309  0.2169  0.1042
 2008DLPE   D2B22770  26.102   3.798   5.222 -0.1583 -0.0505  0.1206
 2008DLPE   D3B22771  26.247   3.709   5.651  0.1714 -0.0281 -0.0546
 2008DLPE   C4B22772  25.976   3.892   6.008 -0.2323  0.3394  0.3755
 2009DLPE   NH322773   4.102   8.656   3.388 -0.0908  0.0426  0.1624
 2009DLPE   PO422774   3.844   8.614   3.182  0.0771  0.1278 -0.1227
 2009DLPE   GL122775   3.673   8.464   3.595  0.0760 -0.1700  0.1161
 2009DLPE   GL222776   3.944   8.359   3.678 -0.1649 -0.1323 -0.3831
 2009DLPE   C1A22777   3.654   8.723   3.941  0.3031 -0.1119 -0.1630
 2009DLPE   D2A22778   3.474   8.948   4.376  0.0346 -0.0508 -0.0927
 2009DLPE   D3A22779   3.145   9.207   4.229  0.0279  0.1858 -0.0288
 2009DLPE   C4A22780   2.792   8.969   3.982 -0.2564 -0.0647 -0.2220
 2009DLPE   C1B22781   4.011   8.456   4.181 -0.2511  0.2576  0.0898
 2009DLPE   D2B22782   3.817   8.604   4.564 -0.2495  0.1733  0.0575
 2009DLPE   D3B22783   3.374   8.551   4.645 -0.4198 -0.3592 -0.2125
 2009DLPE   C4B22784   3.350   8.328   5.118 -0.1009  0.1477 -0.0834
 2010DLPE   NH322785  20.143  11.906   3.541  0.2719  0.0545  0.1405
 2010DLPE   PO422786  20.254  12.221   3.475  0.3733  0.0643 -0.1085
 2010DLPE   GL122787  20.361  12.522   3.762 -0.3069 -0.0023  0.3317
 2010DLPE   GL222788  20.075  12.633   3.772 -0.1252  0.0660  0.0671
 2010DLPE   C1A22789  20.669  12.705   4.083 -0.0088 -0.0434  0.2307
 2010DLPE   D2A22790  20.818  12.634   4.542 -0.0143  0.2111  0.0687
 2010DLPE   D3A22791  20.504  12.481   4.809 -0.4175 -0.4253  0.0287
 2010DLPE   C4A22792  20.177  12.708   4.948 -0.2212 -0.1608 -0.0607
 2010DLPE   C1B22793  19.915  12.838   4.167  0.2235  0.0420 -0.1218
 2010DLPE   D2B22794  19.867  12.924   4.645 -0.3290 -0.3072  0.0084
 2010DLPE   D3B22795  19.476  12.733   4.865 -0.1754 -0.0120  0.0492
 2010DLPE   C4B22796  19.293  12.965   5.251 -0.1547  0.0998  0.0042
 2011DLPE   NH322797  12.505  21.627   3.409 -0.2642  0.1458  0.0112
 2011DLPE   PO422798  12.826  21.471   3.468  0.2065 -0.0070 -0.4697
 2011DLPE   GL122799  12.752  21.262   3.884 -0.0426 -0.0932  0.2510
 2011DLPE   GL222800  12.641  21.577   3.916 -0.4834  0.3570  0.1598
 2011DLPE   C1A22801  12.935  21.159   4.229 -0.2611  0.0141 -0.1463
 2011DLPE   D2A22802  13.156  21.147   4.701  0.3163  0.2199 -0.0941
 2011DLPE   D3A22803  13.027  21.141   5.117  0.2859  0.4990  0.0299
 2011DLPE   C4A22804  13.092  20.886   5.497 -0.0697  0.1004 -0.0964
 2011DLPE   C1B22805  12.274  21.770   3.863 -0.0848  0.1074 -0.0514
 2011DLPE   D2B22806  11.948  22.051   4.101  0.2020 -0.3018 -0.0632
 2011DLPE   D3B22807  11.596  21.877   4.313 -0.0557  0.1262  0.0877
 2011DLPE   C4B22808  11.556  21.611   4.726 -0.4383 -0.2908 -0.1295
 2012DLPE   NH322809   3.886  10.817   3.550 -0.0360 -0.0104  0.0023
 2012DLPE   PO422810   3.967  10.565   3.341 -0.1455 -0.0162 -0.3283
 2012DLPE   GL122811   3.886  10.360   3.608 -0.0508  0.2462  0.0293
 2012DLPE   GL222812   4.091  10.189   3.668 -0.0778  0.0912  0.0018
 2012DLPE   C1A22813   3.664  10.335   4.040 -0.0596 -0.0002 -0.0801
 2012DLPE   D2A22814   3.807  10.127   4.453 -0.0040  0.0220 -0.1835
 2012DLPE   D3A22815   3.747  10.150   4.839  0.1566 -0.1432 -0.1123
 2012DLPE   C4A22816   4.201   9.970   4.859 -0.1865  0.2717  0.0364
 2012DLPE   C1B22817   4.139  10.140   4.051 -0.2778  0.0600 -0.0655
 2012DLPE   D2B22818   4.266  10.293   4.523 -0.2728 -0.1023 -0.1681
 2012DLPE   D3B22819   4.465  10.630   4.812  0.1976  0.0364  0.2904
 2012DLPE   C4B22820   4.441  10.960   5.130 -0.0338  0.0599 -0.2328
 2013DLPE   NH322821   8.258  12.211   2.975 -0.0357 -0.5746  0.0957
 2013DLPE   PO422822   8.311  12.530   2.860 -0.0334 -0.0579 -0.2609
 2013DLPE   GL122823   8.406  12.664   3.274 -0.3214  0.1038  0.1114
 2013DLPE   GL222824   8.166  12.889   3.280 -0.1067 -0.0141  0.3932
 2013DLPE   C1A22825   8.455  12.808   3.682  0.4192  0.0412 -0.3771
 2013DLPE   D2A22826   8.115  12.971   3.972  0.1907 -0.0495 -0.1077
 2013DLPE   D3A22827   7.628  12.935   3.962 -0.0292 -0.4510  0.1434
 2013DLPE   C4A22828   7.454  12.458   4.077  0.0299 -0.1933 -0.1636
 2013DLPE   C1B22829   7.994  12.699   3.551 -0.1559 -0.0348  0.1201
 2013DLPE   D2B22830   7.963  12.453   3.911 -0.0678 -0.0164 -0.0054
 2013DLPE   D3B22831   7.804  12.612   4.367 -0.0324 -0.3588 -0.2202
 2013DLPE   C4B22832   8.103  12.968   4.517  0.1504 -0.0415 -0.0534
 2014DLPE   NH322833   4.757  15.968   3.406  0.1822  0.2134  0.0163
 2014DLPE   PO422834   4.842  15.620   3.428 -0.2782  0.3356 -0.0282
 2014DLPE   GL122835   4.674  15.540   3.700  0.3689 -0.6357 -0.3691
 2014DLPE   GL222836   4.737  15.333   3.819 -0.1142 -0.1076  0.1988
 2014DLPE   C1A22837   4.487  15.839   4.011  0.0308  0.0430  0.2366
 2014DLPE   D2A22838   4.516  16.091   4.374 -0.3773 -0.1868 -0.1281
 2014DLPE   D3A22839   4.510  16.157   4.837  0.1747 -0.2269 -0.0406
 2014DLPE   C4A22840   4.973  16.397   4.919 -0.0840 -0.2358 -0.1947
 2014DLPE   C1B22841   4.860  15.145   4.195  0.0760 -0.0731 -0.2436
 2014DLPE   D2B22842   4.849  14.790   4.536 -0.0825  0.0863  0.1108
 2014DLPE   D3B22843   4.465  14.716   4.727  0.4627 -0.0576  0.3067
 2014DLPE   C4B22844   4.454  14.862   5.226 -0.0588 -0.1258 -0.3473
 2015DLPE   NH322845  14.867  14.441   3.478 -0.2064  0.0547 -0.0472
 2015DLPE   PO422846  14.654  14.724   3.345  0.1750 -0.1624  0.1494
 2015DLPE   GL122847  14.505  14.828   3.786  0.2104  0.0126  0.0342
 2015DLPE   GL222848  14.735  14.676   3.870  0.0951 -0.0031 -0.4171
 2015DLPE   C1A22849  14.083  14.769   3.955 -0.4033 -0.2270 -0.3998
 2015DLPE   D2A22850  13.626  14.657   4.141 -0.0829  0.3684  0.1251
 2015DLPE   D3A22851  13.663  14.424   4.560  0.2386  0.0700 -0.2340
 2015DLPE   C4A22852  13.580  14.138   4.887  0.0215  0.0958 -0.2028
 2015DLPE   C1B22853  14.992  14.789   4.115  0.1632  0.0989 -0.1162
 2015DLPE   D2B22854  15.200  14.811   4.569 -0.1895 -0.1463  0.1179
 2015DLPE   D3B22855  14.739  15.051   4.675  0.2836  0.0495 -0.3565
 2015DLPE   C4B22856  14.847  15.376   4.987 -0.1521  0.2453  0.2454
 2016DLPE   NH322857  18.518   9.346   2.758 -0.3808  0.1982 -0.0274
 2016DLPE   PO422858  18.367   9.240   3.037  0.2581 -0.1866  0.1931
 2016DLPE   GL122859  18.371   8.883   3.219 -0.4011  0.2091 -0.1255
 2016DLPE   GL222860  18.345   9.128   3.498  0.0671 -0.0382 -0.2783
 2016DLPE   C1A22861  18.553   8.550   3.557 -0.1720 -0.1161  0.2195
 2016DLPE   D2A22862  18.993   8.322   3.681  0.0511  0.0918 -0.0268
 2016DLPE   D3A22863  19.402   8.278   3.906  0.3493 -0.0441 -0.0345
 2016DLPE   C4A22864  19.751   7.985   3.824  0.0763  0.4304 -0.2069
 2016DLPE   C1B22865  18.315   9.094   3.938 -0.0408 -0.1662 -0.1824
 2016DLPE   D2B22866  18.304   8.715   4.283  0.3638  0.1141  0.1924
 2016DLPE   D3B22867  18.224   9.121   4.521 -0.2309  0.0590  0.0210
 2016DLPE   C4B22868  18.121   9.530   4.679  0.1154 -0.0040 -0.1141
 2017DLPE   NH322869   1.256  20.139   3.458 -0.0415  0.0076  0.3954
 2017DLPE   PO422870   1.550  20.209   3.675 -0.0318  0.1672  0.2477
 2017DLPE   GL122871   1.743  20.213   4.085 -0.0662  0.4055 -0.0340
 2017DLPE   GL222872   1.928  20.024   4.032 -0.0797  0.3523  0.0207
 2017DLPE   C1A22873   1.869  20.409   4.439 -0.0863 -0.0732  0.0059
 2017DLPE   D2A22874   1.534  20.793   4.552 -0.1406 -0.0663  0.1095
 2017DLPE   D3A22875   1.454  20.824   4.952 -0.0572  0.0273  0.0100
 2017DLPE   C4A22876   1.624  20.542   5.258 -0.3434  0.0420  0.1522
 2017DLPE   C1B22877   2.099  19.952   4.427 -0.1229 -0.1666  0.0355
 2017DLPE   D2B22878   1.997  20.188   4.848 -0.0817  0.2158 -0.2779
 2017DLPE   D3B22879   1.573  20.262   4.813 -0.1697  0.2278 -0.1798
 2017DLPE   C4B22880   1.477  20.057   4.398 -0.3125  0.0943  0.2587
 2018DLPE   NH322881   6.695   7.342   3.172 -0.0530 -0.2680 -0.0861
 2018DLPE   PO422882   6.946   7.141   3.231 -0.4039 -0.1833  0.0572
 2018DLPE   GL122883   6.889   7.324   3.652  0.0229  0.0107 -0.0685
 2018DLPE   GL222884   6.675   7.142   3.631 -0.1259 -0.0894  0.2936
 2018DLPE   C1A22885   7.009   7.232   4.084 -0.5420  0.1719 -0.1287
 2018DLPE   D2A22886   7.206   6.949   4.448 -0.2177  0.0983 -0.1432
 2018DLPE   D3A22887   6.919   6.689   4.582  0.1591  0.0712  0.3555
 2018DLPE   C4A22888   6.895   6.170   4.661  0.0375 -0.2339  0.0389
 2018DLPE   C1B22889   6.692   6.838   3.937 -0.1002 -0.4307  0.0690
 2018DLPE   D2B22890   6.647   7.156   4.398  0.2393 -0.0565  0.0687
 2018DLPE   D3B22891   6.545   6.901   4.769 -0.1805  0.1515  0.2025
 2018DLPE   C4B22892   6.540   7.047   5.164 -0.1095 -0.0067 -0.0300
 2019DLPE   NH322893  22.231   9.748   3.268  0.2711  0.3673  0.0032
 2019DLPE   PO422894  21.986   9.554   3.271  0.0542 -0.1254  0.1260
 2019DLPE   GL122895  21.684   9.556   3.594 -0.2691  0.0289  0.0733
 2019DLPE   GL222896  21.404   9.578   3.515  0.0512  0.0822 -0.0547
 2019DLPE   C1A22897  21.792   9.371   3.967  0.2681  0.1055  0.0655
 2019DLPE   D2A22898  21.602   9.450   4.417 -0.1872  0.2076 -0.0585
 2019DLPE   D3A22899  21.324   9.476   4.828  0.1032  0.2548 -0.3895
 2019DLPE   C4A22900  20.995   9.116   4.795 -0.1035  0.0939 -0.0572
 2019DLPE   C1B22901  21.252   9.606   3.960 -0.0752  0.0824  0.0496
 2019DLPE   D2B22902  21.056   9.432   4.369  0.3496  0.1258  0.2483
 2019DLPE   D3B22903  21.027   9.821   4.600  0.1380 -0.1666 -0.0118
 2019DLPE   C4B22904  21.151   9.836   5.085 -0.1101  0.1300 -0.0880
 2020DLPE   NH322905  25.809  14.334   3.647  0.1897 -0.2809  0.0245
 2020DLPE   PO422906  25.618  14.146   3.846 -0.1199 -0.1203 -0.0028
 2020DLPE   GL122907  25.505  14.505   4.109 -0.4664  0.0860  0.2436
 2020DLPE   GL222908  25.404  14.331   4.276 -0.0906 -0.4908 -0.2908
 2020DLPE   C1A22909  25.256  14.770   4.387 -0.1671 -0.0526  0.2654
 2020DLPE   D2A22910  24.733  14.884   4.502  0.1308 -0.0146 -0.1833
 2020DLPE   D3A22911  24.631  14.807   4.878  0.1186  0.0160 -0.0952
 2020DLPE   C4A22912  24.826  14.916   5.300 -0.2913 -0.0868 -0.1948
 2020DLPE   C1B22913  25.258  14.277   4.638 -0.5056  0.1013 -0.2619
 2020DLPE   D2B22914  25.044  14.020   5.023 -0.0214 -0.2222 -0.0164
 2020DLPE   D3B22915  25.076  14.160   5.415  0.3755 -0.0887  0.0148
 2020DLPE   C4B22916  24.657  14.154   5.581  0.1686 -0.5866 -0.3537
 2021DLPE   NH322917  12.580  13.013   3.220 -0.1653 -0.4509 -0.0564
 2021DLPE   PO422918  12.481  12.783   3.411 -0.1344  0.1615 -0.2752
 2021DLPE   GL122919  12.621  12.881   3.729  0.3068 -0.2197 -0.1129
 2021DLPE   GL222920  12.893  12.849   3.576 -0.2923  0.2201 -0.3163
 2021DLPE   C1A22921  12.553  12.738   4.186  0.1025  0.1277 -0.1449
 2021DLPE   D2A22922  12.460  12.644   4.674  0.1429  0.0102 -0.5470
 2021DLPE   D3A22923  12.573  12.515   5.084 -0.3020  0.1024 -0.3937
 2021DLPE   C4A22924  12.570  12.973   5.146 -0.0906 -0.0448  0.0935
 2021DLPE   C1B22925  13.183  12.804   3.860 -0.1815  0.0207 -0.1720
 2021DLPE   D2B22926  13.682  12.806   3.835  0.1493  0.2022 -0.1774
 2021DLPE   D3B22927  13.615  12.841   4.307 -0.1028  0.2282  0.4375
 2021DLPE   C4B22928  13.838  12.576   4.661  0.0552 -0.2782  0.1893
 2022DLPE   NH322929  17.412  20.404   3.273 -0.0977 -0.0679  0.1453
 2022DLPE   PO422930  17.183  20.152   3.410 -0.1474  0.2058 -0.2673
 2022DLPE   GL122931  17.066  20.246   3.775 -0.1539  0.0975 -0.1214
 2022DLPE   GL222932  17.259  20.213   3.947  0.3581 -0.0198  0.0385
 2022DLPE   C1A22933  16.695  20.123   4.080  0.0731 -0.2449  0.2144
 2022DLPE   D2A22934  16.432  19.828   4.363  0.1152  0.2693 -0.2711
 2022DLPE   D3A22935  16.388  19.762   4.774 -0.0857  0.2738  0.0457
 2022DLPE   C4A22936  16.835  19.608   4.741  0.0232 -0.1134 -0.2619
 2022DLPE   C1B22937  17.079  20.425   4.211 -0.1225 -0.0503 -0.1541
 2022DLPE   D2B22938  17.166  20.870   4.229  0.1335  0.1322  0.2162
 2022DLPE   D3B22939  17.551  20.894   4.283 -0.1592  0.0412  0.0702
 2022DLPE   C4B22940  17.593  20.619   4.750  0.1588  0.1027  0.2216
 2023DLPE   NH322941   7.727  26.028   3.657 -0.2082  0.4816 -0.0388
 2023DLPE   PO422942   7.360  26.033   3.722  0.2098  0.1234  0.1903
 2023DLPE   GL122943   7.355  26.277   4.034 -0.0169 -0.0526  0.2560
 2023DLPE   GL222944   7.219  26.068   4.163 -0.1892  0.3700  0.2261
 2023DLPE   C1A22945   7.628  26.317   4.388 -0.1234 -0.1364 -0.2314
 2023DLPE   D2A22946   7.650  26.486   4.854 -0.1717 -0.3115 -0.3552
 2023DLPE   D3A22947   7.893  26.247   5.097 -0.0750  0.0169  0.0248
 2023DLPE   C4A22948   7.566  25.993   5.269 -0.1363 -0.4874  0.2459
 2023DLPE   C1B22949   7.103  26.175   4.576 -0.0103 -0.0323  0.1850
 2023DLPE   D2B22950   7.176  26.294   5.059 -0.1089 -0.0337 -0.0404
 2023DLPE   D3B22951   6.814  26.188   5.192 -0.3739 -0.3024  0.2978
 2023DLPE   C4B22952   6.633  26.561   5.464 -0.0079 -0.0084  0.0269
 2024DLPE   NH322953   9.206   7.545   3.746  0.2968  0.1150 -0.0704
 2024DLPE   PO422954   8.993   7.885   3.781  0.2015  0.0522  0.1818
 2024DLPE   GL122955   9.126   7.866   4.123 -0.0337 -0.0198 -0.0842
 2024DLPE   GL222956   8.828   7.908   4.118 -0.2469 -0.3834  0.0902
 2024DLPE   C1A22957   9.292   8.142   4.401  0.0675 -0.0311 -0.1142
 2024DLPE   D2A22958   9.277   8.170   4.881  0.1358  0.0420 -0.0441
 2024DLPE   D3A22959   9.003   8.404   5.097  0.0736 -0.1262  0.0410
 2024DLPE   C4A22960   8.792   8.462   5.540 -0.0242 -0.1332 -0.1915
 2024DLPE   C1B22961   8.793   7.658   4.511  0.0692  0.2194 -0.1343
 2024DLPE   D2B22962   8.583   7.470   4.936  0.1435  0.2119  0.1121
 2024DLPE   D3B22963   8.637   7.137   4.658 -0.0736  0.1413 -0.1085
 2024DLPE   C4B22964   9.046   7.066   4.859  0.0921  0.0451 -0.2165
 2025DLPE   NH322965   0.382  13.442   3.157 -0.1722 -0.1875 -0.1729
 2025DLPE   PO422966   0.380  13.668   3.421  0.0644 -0.1153  0.0800
 2025DLPE   GL122967   0.405  13.609   3.845  0.2482 -0.5285 -0.1364
 2025DLPE   GL222968   0.617  13.802   3.876 -0.0982 -0.0483 -0.0396
 2025DLPE   C1A22969   0.108  13.502   4.256 -0.0352 -0.0697 -0.0205
 2025DLPE   D2A22970   0.283  13.621   4.745 -0.0073  0.2132  0.3340
 2025DLPE   D3A22971   0.327  13.193   5.107 -0.0738 -0.2806  0.3105
 2025DLPE   C4A22972   0.143  13.243   5.566 -0.0053  0.2519  0.7341
 2025DLPE   C1B22973   0.896  13.579   4.154 -0.1404  0.2848  0.2457
 2025DLPE   D2B22974   1.351  13.762   4.242  0.1360  0.0100  0.1644
 2025DLPE   D3B22975   1.577  14.161   4.318  0.0258  0.0388  0.2529
 2025DLPE   C4B22976   1.990  14.401   4.289 -0.3434  0.0174  0.0448
 2026DLPE   NH322977  23.771  15.582   3.149  0.0533  0.2196 -0.0607
 2026DLPE   PO422978  23.743  15.894   3.039  0.1756 -0.1105 -0.1311
 2026DLPE   GL122979  23.549  16.076   3.402  0.0834  0.2359  0.2215
 2026DLPE   GL222980  23.256  16.115   3.280 -0.2824  0.2656  0.6265
 2026DLPE   C1A22981  23.465  15.869   3.718 -0.0863  0.0543 -0.1108
 2026DLPE   D2A22982  23.368  15.566   4.091 -0.0859  0.0875  0.2785
 2026DLPE   D3A22983  23.587  15.259   4.262  0.1012  0.0490  0.0315
 2026DLPE   C4A22984  23.608  15.238   4.743 -0.3035 -0.1809 -0.0777
 2026DLPE   C1B22985  22.858  16.186   3.404  0.0706  0.1291  0.1846
 2026DLPE   D2B22986  22.422  15.993   3.418 -0.0258  0.1665 -0.3146
 2026DLPE   D3B22987  22.530  15.705   3.755  0.0241 -0.1447 -0.0790
 2026DLPE   C4B22988  22.585  15.807   4.195  0.0356  0.2372  0.0871
 2027DLPE   NH322989  26.948  20.492   3.481 -0.2553  0.0588 -0.1830
 2027DLPE   PO422990  26.722  20.242   3.545  0.2529  0.0567 -0.0713
 2027DLPE   GL122991  26.780  20.006   3.937 -0.0758 -0.4977  0.5283
 2027DLPE   GL222992  26.803  20.247   3.960 -0.1254 -0.1954  0.2793
 2027DLPE   C1A22993  26.619  19.861   4.353 -0.6311  0.1323  0.1736
 2027DLPE   D2A22994  26.485  19.551   4.650 -0.0487 -0.1096 -0.1054
 2027DLPE   D3A22995  26.504  19.293   5.024  0.1150 -0.2159 -0.2114
 2027DLPE   C4A22996  26.616  18.914   5.313 -0.0386  0.1509  0.0181
 2027DLPE   C1B22997  26.492  20.277   4.269 -0.1058 -0.0055 -0.1420
 2027DLPE   D2B22998  26.795  20.690   4.449  0.0271  0.1074  0.0789
 2027DLPE   D3B22999  26.740  21.130   4.274 -0.0136 -0.0472  0.2217
 2027DLPE   C4B23000  26.298  21.222   4.475  0.1865  0.0514  0.3646
 2028DLPE   NH323001  13.611   1.751   3.986  0.0954  0.0778  0.1051
 2028DLPE   PO423002  13.742   2.072   4.080 -0.2964 -0.2607  0.0851
 2028DLPE   GL123003  13.847   2.063   4.458  0.0736  0.2048 -0.2374
 2028DLPE   GL223004  13.521   2.044   4.497  0.0778 -0.0851  0.1425
 2028DLPE   C1A23005  14.059   2.171   4.821 -0.2576 -0.0203  0.0472
 2028DLPE   D2A23006  14.143   2.236   5.367 -0.1820 -0.2657 -0.0481
 2028DLPE   D3A23007  14.426   2.143   5.713  0.1685  0.3563  0.1580
 2028DLPE   C4A23008  14.721   2.351   6.042 -0.1200  0.0811  0.3269
 2028DLPE   C1B23009  13.522   1.936   4.927 -0.0953  0.0920 -0.1537
 2028DLPE   D2B23010  13.153   1.855   5.256 -0.1992 -0.2091 -0.2761
 2028DLPE   D3B23011  12.975   2.107   5.615 -0.0695  0.3071 -0.4204
 2028DLPE   C4B23012  13.222   2.451   5.660 -0.0203  0.0233  0.2446
 2029DLPE   NH323013  24.687   2.643   3.715  0.0060  0.1988 -0.3577
 2029DLPE   PO423014  24.511   2.379   3.792 -0.2321 -0.1181 -0.1470
 2029DLPE   GL123015  24.430   1.909   3.927  0.4167  0.1257 -0.1107
 2029DLPE   GL223016  24.670   2.023   4.007  0.1806 -0.3801 -0.1480
 2029DLPE   C1A23017  24.254   1.682   4.258  0.2150 -0.2784  0.2070
 2029DLPE   D2A23018  23.997   1.618   4.705 -0.1151 -0.3478 -0.1326
 2029DLPE   D3A23019  23.650   1.415   4.972  0.0733  0.2504 -0.2745
 2029DLPE   C4A23020  23.848   1.049   5.241  0.0816  0.1947 -0.3253
 2029DLPE   C1B23021  24.697   2.026   4.469  0.0453 -0.2604  0.0890
 2029DLPE   D2B23022  24.834   2.239   4.854 -0.0007  0.3040 -0.3666
 2029DLPE   D3B23023  25.051   2.501   5.192 -0.0032  0.0514 -0.1367
 2029DLPE   C4B23024  25.156   2.565   5.662 -0.0229  0.2005  0.3679
 2030DLPE   NH323025   1.055  15.029   3.565 -0.4202  0.0366 -0.1348
 2030DLPE   PO423026   0.814  15.030   3.796  0.0230  0.1781 -0.0238
 2030DLPE   GL123027   0.753  14.749   3.944 -0.1536  0.4206 -0.1027
 2030DLPE   GL223028   1.024  14.656   4.003 -0.2885  0.3560 -0.3199
 2030DLPE   C1A23029   0.530  14.795   4.279  0.0336  0.1907  0.1150
 2030DLPE   D2A23030   0.207  14.579   4.585 -0.2465  0.0337 -0.0780
 2030DLPE   D3A23031   0.196  14.146   4.700 -0.0372  0.1340 -0.0092
 2030DLPE   C4A23032   0.225  13.910   5.174 -0.1503  0.0822 -0.3210
 2030DLPE   C1B23033   1.040  14.674   4.352 -0.0572  0.4051 -0.1088
 2030DLPE   D2B23034   0.705  14.942   4.688 -0.2815  0.1691 -0.2866
 2030DLPE   D3B23035   0.424  14.815   4.992  0.1563 -0.2190  0.2986
 2030DLPE   C4B23036   0.083  15.083   4.688  0.3239  0.1568 -0.0738
 2031DLPE   NH323037  15.902   0.579   3.631  0.0146  0.0089 -0.2133
 2031DLPE   PO423038  15.666   0.635   3.887  0.1097 -0.3722 -0.0903
 2031DLPE   GL123039  15.490   0.446   4.213  0.0115 -0.2503 -0.1358
 2031DLPE   GL223040  15.641   0.223   4.201 -0.2710 -0.2447  0.0677
 2031DLPE   C1A23041  15.193   0.468   4.520 -0.1467 -0.2888 -0.1287
 2031DLPE   D2A23042  14.792   0.348   4.790 -0.2068  0.1631  0.0167
 2031DLPE   D3A23043  14.551   0.083   5.090 -0.0350 -0.1453 -0.0605
 2031DLPE   C4A23044  14.114   0.123   5.310 -0.0550 -0.2524 -0.2209
 2031DLPE   C1B23045  15.700   0.294   4.598  0.1063  0.1503  0.1712
 2031DLPE   D2B23046  15.778   0.501   5.043 -0.5309  0.2230  0.2499
 2031DLPE   D3B23047  15.497   0.236   5.209 -0.0727 -0.3938 -0.0674
 2031DLPE   C4B23048  15.552  -0.252   5.142  0.1846  0.1173 -0.2725
 2032DLPE   NH323049  16.914  18.117   3.285 -0.1174 -0.2371  0.1985
 2032DLPE   PO423050  17.083  18.401   3.452  0.0826 -0.0517 -0.0520
 2032DLPE   GL123051  17.058  18.238   3.823  0.0210  0.0703 -0.0207
 2032DLPE   GL223052  16.755  18.170   3.694 -0.3823 -0.4103 -0.3163
 2032DLPE   C1A23053  17.176  18.167   4.242  0.2074 -0.1117  0.3587
 2032DLPE   D2A23054  17.121  18.118   4.766  0.3364 -0.2474 -0.1230
 2032DLPE   D3A23055  17.012  18.009   5.097 -0.3215 -0.2244 -0.2794
 2032DLPE   C4A23056  17.289  17.867   5.496  0.1294 -0.0430  0.0675
 2032DLPE   C1B23057  16.373  18.143   4.017 -0.3139 -0.1324 -0.0312
 2032DLPE   D2B23058  16.220  17.950   4.446  0.1878  0.1529 -0.1116
 2032DLPE   D3B23059  16.432  17.797   4.847  0.2516  0.1727  0.2040
 2032DLPE   C4B23060  16.364  17.917   5.330  0.3233 -0.1605 -0.0217
 2033DLPE   NH323061  26.782  15.006   3.306 -0.0071 -0.2733  0.3710
 2033DLPE   PO423062  26.613  14.755   3.455 -0.2433  0.2047 -0.1486
 2033DLPE   GL123063  26.408  15.086   3.755  0.0759 -0.3181  0.1554
 2033DLPE   GL223064  26.594  15.260   3.625 -0.0021 -0.0642 -0.1122
 2033DLPE   C1A23065  26.370  15.080   4.196  0.4255 -0.0411  0.2591
 2033DLPE   D2A23066  26.484  15.139   4.661  0.0322  0.0048  0.0869
 2033DLPE   D3A23067  26.234  15.125   5.061 -0.1575  0.1124 -0.2403
 2033DLPE   C4A23068  25.921  15.355   5.326  0.1230  0.2376  0.1933
 2033DLPE   C1B23069  26.788  15.556   3.932 -0.0775 -0.1563  0.0379
 2033DLPE   D2B23070  26.833  15.456   4.425  0.1289  0.0827 -0.0610
 2033DLPE   D3B23071  26.773  15.687   4.802  0.2556  0.2447 -0.0597
 2033DLPE   C4B23072  27.127  15.861   5.108 -0.1276  0.1268  0.2048
 2034DLPE   NH323073   0.671  26.316   3.985  0.1342 -0.0019  0.2254
 2034DLPE   PO423074   0.494  26.581   3.758 -0.0892 -0.0335  0.2665
 2034DLPE   GL123075   0.389  26.806   4.049  0.0096  0.0339  0.1294
 2034DLPE   GL223076   0.145  26.834   3.905  0.1848 -0.1557 -0.3580
 2034DLPE   C1A23077   0.099  26.527   4.283  0.1969 -0.1110 -0.3409
 2034DLPE   D2A23078   0.061  26.644   4.763 -0.2770  0.2473 -0.0429
 2034DLPE   D3A23079  -0.102  26.608   5.196 -0.0863 -0.1670  0.0421
 2034DLPE   C4A23080   0.208  26.655   5.525  0.1566 -0.0148 -0.1290
 2034DLPE   C1B23081   0.069  27.202   4.124  0.1723  0.0991  0.3486
 2034DLPE   D2B23082  -0.003  27.092   4.608 -0.3345  0.1205 -0.0186
 2034DLPE   D3B23083  -0.127  27.122   5.051  0.0372  0.4620 -0.2584
 2034DLPE   C4B23084   0.116  27.487   5.199 -0.0026 -0.1639 -0.3495
 2035DLPE   NH323085   6.297  17.852   3.075  0.1058 -0.2574  0.2725
 2035DLPE   PO423086   6.123  17.900   3.317 -0.2883 -0.1412 -0.0807
 2035DLPE   GL123087   6.085  17.837   3.739  0.2762  0.3634  0.0677
 2035DLPE   GL223088   6.452  17.746   3.736  0.1853 -0.4841  0.0055
 2035DLPE   C1A23089   5.870  18.025   4.024 -0.0053 -0.1841 -0.1499
 2035DLPE   D2A23090   5.696  18.124   4.446  0.4409 -0.0983 -0.1591
 2035DLPE   D3A23091   5.989  17.993   4.803  0.0097  0.0259 -0.0539
 2035DLPE   C4A23092   6.077  18.071   5.256 -0.1047  0.0058 -0.3895
 2035DLPE   C1B23093   6.759  17.497   3.939 -0.3167  0.2749  0.0844
 2035DLPE   D2B23094   7.134  17.168   4.209  0.0856 -0.0002 -0.0113
 2035DLPE   D3B23095   7.013  16.794   4.410 -0.1240  0.1621  0.0892
 2035DLPE   C4B23096   6.766  16.531   4.747  0.1176  0.2848 -0.3546
 2036DLPE   NH323097  27.494  11.212   3.206  0.1406  0.0127  0.0186
 2036DLPE   PO423098  27.537  10.981   3.461 -0.1287  0.3392 -0.1106
 2036DLPE   GL123099  27.693  11.050   3.901 -0.1172 -0.1010  0.1739
 2036DLPE   GL223100  27.372  11.044   3.944  0.0560 -0.0020  0.1679
 2036DLPE   C1A23101  27.964  11.009   4.254 -0.0951  0.0380  0.2199
 2036DLPE   D2A23102  28.009  10.597   4.579  0.2268 -0.1073 -0.1223
 2036DLPE   D3A23103  28.509  10.500   4.468 -0.0465 -0.0856 -0.2971
 2036DLPE   C4A23104  28.700  10.265   4.850  0.1178  0.1937 -0.1057
 2036DLPE   C1B23105  27.126  10.938   4.276  0.0356 -0.1984  0.1387
 2036DLPE   D2B23106  26.819  10.649   4.512  0.0923  0.0380 -0.1036
 2036DLPE   D3B23107  26.546  10.274   4.633  0.1218  0.0768  0.1644
 2036DLPE   C4B23108  26.135  10.327   4.881  0.2312 -0.1155 -0.0231
 2037DLPE   NH323109  12.051   2.653   3.616 -0.0015 -0.1506  0.1759
 2037DLPE   PO423110  12.306   2.877   3.579 -0.0132 -0.2961  0.0136
 2037DLPE   GL123111  12.409   2.997   4.039  0.0856  0.2414  0.0556
 2037DLPE   GL223112  12.582   2.828   4.060  0.2640 -0.2984 -0.3623
 2037DLPE   C1A23113  12.036   3.188   4.177  0.1412 -0.3278 -0.3397
 2037DLPE   D2A23114  11.686   3.546   4.302 -0.1056  0.0056 -0.0292
 2037DLPE   D3A23115  11.514   3.645   4.697 -0.1058  0.2809  0.1803
 2037DLPE   C4A23116  11.451   3.382   5.123  0.0859  0.2357  0.2170
 2037DLPE   C1B23117  12.644   2.514   4.409 -0.2011 -0.0481  0.3457
 2037DLPE   D2B23118  12.800   2.260   4.747 -0.1192  0.0475  0.1034
 2037DLPE   D3B23119  12.737   2.041   5.062 -0.0658 -0.1318 -0.2990
 2037DLPE   C4B23120  13.031   1.732   4.807  0.2024  0.1831  0.0869
 2038DLPE   NH323121  19.051  12.228   3.230 -0.2632  0.1024  0.1226
 2038DLPE   PO423122  19.365  12.171   3.355 -0.1203 -0.2536  0.4409
 2038DLPE   GL123123  19.285  12.119   3.737 -0.2734  0.0611 -0.4776
 2038DLPE   GL223124  19.183  12.426   3.734  0.2262 -0.0455 -0.1502
 2038DLPE   C1A23125  19.401  12.041   4.111 -0.1052  0.2915 -0.2805
 2038DLPE   D2A23126  19.508  11.700   4.391  0.3176  0.1652 -0.0510
 2038DLPE   D3A23127  19.342  11.545   4.791  0.0439 -0.0376 -0.1049
 2038DLPE   C4A23128  19.264  11.551   5.216 -0.1581  0.2093  0.2308
 2038DLPE   C1B23129  19.516  12.486   4.051  0.2701 -0.1732 -0.0337
 2038DLPE   D2B23130  19.958  12.314   4.118 -0.0804  0.1074  0.1196
 2038DLPE   D3B23131  20.178  12.488   4.422  0.2374 -0.4169  0.0762
 2038DLPE   C4B23132  20.120  12.218   4.746 -0.0509 -0.3921 -0.0451
 2039DLPE   NH323133   0.511  23.219   2.665  0.0950 -0.0381 -0.2161
 2039DLPE   PO423134   0.515  23.409   2.979  0.1076 -0.0467  0.3218
 2039DLPE   GL123135   0.324  23.223   3.351 -0.1374  0.0835 -0.1095
 2039DLPE   GL223136   0.621  23.275   3.463  0.0265  0.1992 -0.3112
 2039DLPE   C1A23137   0.189  23.102   3.750 -0.2646 -0.0195 -0.1684
 2039DLPE   D2A23138  -0.099  23.058   4.131  0.0598 -0.0934 -0.0983
 2039DLPE   D3A23139   0.046  23.477   3.986  0.0985  0.1014  0.0191
 2039DLPE   C4A23140   0.446  23.619   3.855  0.1624  0.1378  0.0277
 2039DLPE   C1B23141   0.882  23.337   3.823  0.0042 -0.1428  0.0936
 2039DLPE   D2B23142   0.949  23.088   4.246 -0.3914 -0.0762  0.3173
 2039DLPE   D3B23143   1.226  22.777   4.218  0.0373  0.4129  0.0837
 2039DLPE   C4B23144   1.186  22.863   4.663  0.0951 -0.0092  0.3204
 2040DLPE   NH323145  17.670  25.817   3.513 -0.2113  0.3308  0.0339
 2040DLPE   PO423146  17.353  25.955   3.665  0.0844  0.0124 -0.0936
 2040DLPE   GL123147  17.274  25.940   4.083 -0.1885  0.0189 -0.0659
 2040DLPE   GL223148  17.519  25.856   4.148  0.3679 -0.2286 -0.2046
 2040DLPE   C1A23149  17.015  25.800   4.426 -0.1186 -0.3100 -0.0593
 2040DLPE   D2A23150  17.233  25.629   4.752 -0.3567  0.1898 -0.1303
 2040DLPE   D3A23151  17.592  25.886   4.671 -0.2811  0.0656  0.2117
 2040DLPE   C4A23152  17.929  26.112   4.421 -0.2328 -0.0785  0.0151
 2040DLPE   C1B23153  17.801  25.515   4.410  0.3059  0.1078 -0.0564
 2040DLPE   D2B23154  17.963  25.369   4.870 -0.2133 -0.0121  0.1749
 2040DLPE   D3B23155  17.739  25.714   5.114  0.2917  0.2474  0.0190
 2040DLPE   C4B23156  17.506  25.913   5.477 -0.2652  0.0636  0.0064
 2041DLPE   NH323157   4.953  18.098   3.310  0.1760 -0.0062  0.4576
 2041DLPE   PO423158   4.647  18.250   3.456 -0.0222 -0.0142 -0.0958
 2041DLPE   GL123159   4.841  17.978   3.801  0.0585 -0.2645 -0.1622
 2041DLPE   GL223160   5.079  18.126   3.721  0.2358  0.0247  0.2207
 2041DLPE   C1A23161   4.773  18.037   4.179 -0.0051 -0.0476 -0.5406
 2041DLPE   D2A23162   4.760  18.251   4.605  0.1310 -0.1527  0.1505
 2041DLPE   D3A23163   4.307  18.327   4.626  0.1078 -0.1080  0.2155
 2041DLPE   C4A23164   4.428  18.397   4.106  0.0240  0.2080  0.0432
 2041DLPE   C1B23165   5.286  17.837   3.992 -0.0037  0.4074 -0.1716
 2041DLPE   D2B23166   5.272  17.579   4.469 -0.0637  0.1292 -0.0607
 2041DLPE   D3B23167   5.664  17.615   4.412  0.1584  0.3055  0.1266
 2041DLPE   C4B23168   5.965  17.467   4.774  0.0903 -0.1339 -0.0509
 2042DLPE   NH323169  20.616  24.398   3.467  0.2031  0.0611  0.1022
 2042DLPE   PO423170  20.971  24.362   3.407  0.2655  0.0017  0.0579
 2042DLPE   GL123171  21.113  24.452   3.777 -0.2518  0.0297 -0.0982
 2042DLPE   GL223172  20.916  24.360   3.980 -0.0810 -0.1301 -0.3316
 2042DLPE   C1A23173  21.528  24.326   3.900  0.1522  0.0570 -0.2579
 2042DLPE   D2A23174  21.899  23.999   3.909  0.0219 -0.4578 -0.1106
 2042DLPE   D3A23175  22.184  24.334   3.874  0.1032  0.0924 -0.0049
 2042DLPE   C4A23176  22.193  24.766   4.063  0.1699 -0.0704 -0.0323
 2042DLPE   C1B23177  21.040  24.160   4.376  0.0150  0.1650  0.3250
 2042DLPE   D2B23178  20.808  24.226   4.772 -0.1998  0.0400  0.1607
 2042DLPE   D3B23179  21.078  24.018   5.091 -0.2625 -0.2532 -0.1118
 2042DLPE   C4B23180  21.475  23.835   5.242  0.0062  0.2013  0.0217
 2043DLPE   NH323181   5.356  18.764   3.380  0.0693 -0.0470 -0.0973
 2043DLPE   PO423182   5.294  18.405   3.431 -0.0816 -0.6086  0.1885
 2043DLPE   GL123183   5.469  18.238   3.803 -0.0976 -0.0095 -0.2420
 2043DLPE   GL223184   5.732  18.378   3.785 -0.2571  0.1896  0.1965
 2043DLPE   C1A23185   5.193  18.352   4.172  0.1737  0.1351 -0.0342
 2043DLPE   D2A23186   5.206  18.047   4.560 -0.1606  0.1725  0.1594
 2043DLPE   D3A23187   5.491  17.793   4.827 -0.0708  0.1260 -0.0557
 2043DLPE   C4A23188   5.495  17.322   4.878 -0.4088 -0.1433 -0.0389
 2043DLPE   C1B23189   5.685  18.518   4.125 -0.0546 -0.0830  0.3549
 2043DLPE   D2B23190   5.508  18.575   4.554  0.0861 -0.2509 -0.1681
 2043DLPE   D3B23191   5.702  18.810   4.855 -0.0566  0.1584  0.4009
 2043DLPE   C4B23192   5.432  19.032   5.239 -0.0987  0.1469 -0.1633
 2044DLPE   NH323193  25.519   6.540   3.377 -0.5329  0.0584  0.3633
 2044DLPE   PO423194  25.821   6.744   3.403 -0.0287 -0.0683  0.1036
 2044DLPE   GL123195  25.807   6.941   3.754 -0.0842  0.4549 -0.2780
 2044DLPE   GL223196  25.520   6.911   3.790 -0.2244  0.2232  0.1965
 2044DLPE   C1A23197  25.997   7.212   4.036 -0.1002  0.0007 -0.0544
 2044DLPE   D2A23198  26.180   7.723   4.023 -0.0827  0.0534  0.0688
 2044DLPE   D3A23199  26.164   8.071   4.307  0.2543  0.0547  0.5583
 2044DLPE   C4A23200  25.816   8.396   4.282 -0.0860 -0.0088 -0.0066
 2044DLPE   C1B23201  25.518   7.187   4.135 -0.1096 -0.0036 -0.1497
 2044DLPE   D2B23202  25.538   7.361   4.576 -0.0538 -0.1607 -0.0650
 2044DLPE   D3B23203  25.997   7.463   4.436  0.1146 -0.0758  0.0722
 2044DLPE   C4B23204  26.255   7.327   4.774  0.0637  0.1889  0.3332
 2045DLPE   NH323205  15.049  21.667   3.352 -0.0924 -0.0600 -0.0841
 2045DLPE   PO423206  15.264  21.892   3.568  0.1478 -0.2353 -0.1036
 2045DLPE   GL123207  15.011  22.078   3.964  0.2437  0.6784 -0.0282
 2045DLPE   GL223208  15.347  22.163   3.974  0.3323 -0.2334  0.4169
 2045DLPE   C1A23209  14.768  22.128   4.377  0.2553 -0.0270  0.2493
 2045DLPE   D2A23210  14.940  21.896   4.756 -0.1591  0.3748 -0.0809
 2045DLPE   D3A23211  14.777  21.515   5.028 -0.1692 -0.0007 -0.1334
 2045DLPE   C4A23212  14.541  21.252   5.406 -0.2308  0.2507  0.1467
 2045DLPE   C1B23213  15.356  22.174   4.456  0.0161  0.0081 -0.2949
 2045DLPE   D2B23214  15.224  22.213   4.960 -0.0097 -0.2515  0.3332
 2045DLPE   D3B23215  15.054  22.500   5.286 -0.1007 -0.0062 -0.0119
 2045DLPE   C4B23216  14.959  22.203   5.660 -0.1204 -0.0277  0.1146
 2046DLPE   NH323217  22.700  13.021   3.218  0.1276  0.2238 -0.0293
 2046DLPE   PO423218  22.904  13.022   3.505  0.5510 -0.2055 -0.2582
 2046DLPE   GL123219  22.749  12.895   3.823  0.2893 -0.2516 -0.2576
 2046DLPE   GL223220  22.930  13.101   3.994  0.0239 -0.1630  0.1382
 2046DLPE   C1A23221  22.427  12.963   4.035 -0.2014 -0.2556  0.1237
 2046DLPE   D2A23222  21.908  12.967   4.130 -0.2882  0.0767  0.0102
 2046DLPE   D3A23223  21.709  12.620   4.219 -0.1459 -0.1218 -0.3443
 2046DLPE   C4A23224  21.191  12.669   4.271 -0.0229  0.3201 -0.1881
 2046DLPE   C1B23225  22.849  13.364   4.338 -0.0408  0.3007  0.2607
 2046DLPE   D2B23226  23.178  13.630   4.604  0.2294  0.0317 -0.1021
 2046DLPE   D3B23227  23.080  13.702   5.074  0.2695 -0.0944  0.0723
 2046DLPE   C4B23228  23.125  13.749   5.547  0.2470 -0.1142  0.0444
 2047DLPE   NH323229  14.414  27.433   3.698 -0.2076 -0.1953  0.1320
 2047DLPE   PO423230  14.722  27.539   3.849  0.0873  0.0964 -0.1136
 2047DLPE   GL123231  14.500  27.616   4.248  0.0580 -0.1006 -0.0594
 2047DLPE   GL223232  14.695  27.348   4.306  0.0032 -0.2867  0.0162
 2047DLPE   C1A23233  14.426  28.015   4.466  0.3756 -0.0148 -0.1721
 2047DLPE   D2A23234  14.361  28.255   4.903  0.0747  0.0039 -0.0444
 2047DLPE   D3A23235  14.410  28.188   5.401 -0.0920 -0.1878  0.2882
 2047DLPE   C4A23236  14.146  28.352   5.787 -0.0553  0.1057 -0.3160
 2047DLPE   C1B23237  14.546  27.101   4.557 -0.1583  0.0550  0.0263
 2047DLPE   D2B23238  14.652  27.214   5.035 -0.1962 -0.4174  0.0571
 2047DLPE   D3B23239  14.644  27.278   5.436 -0.0247 -0.0828 -0.1305
 2047DLPE   C4B23240  14.627  27.711   5.587 -0.0261  0.0049 -0.2462
 2048DLPE   NH323241  24.002  22.370   3.259 -0.0706 -0.0981  0.1676
 2048DLPE   PO423242  23.957  22.682   3.444  0.0419  0.1268  0.0984
 2048DLPE   GL123243  24.002  22.779   3.761  0.1799 -0.2519  0.0824
 2048DLPE   GL223244  23.837  23.040   3.795 -0.2026  0.2407 -0.0152
 2048DLPE   C1A23245  24.132  22.474   4.068 -0.0176 -0.0579  0.3119
 2048DLPE   D2A23246  24.434  22.220   4.337  0.0985 -0.0066 -0.0130
 2048DLPE   D3A23247  24.202  21.851   4.517  0.2638  0.3342  0.1563
 2048DLPE   C4A23248  23.794  22.151   4.291  0.2737 -0.1255 -0.4047
 2048DLPE   C1B23249  23.685  23.038   4.182  0.0224 -0.2732 -0.2461
 2048DLPE   D2B23250  23.489  23.215   4.572 -0.0330 -0.0248  0.0926
 2048DLPE   D3B23251  23.529  23.616   4.807  0.0061 -0.2263 -0.0702
 2048DLPE   C4B23252  23.230  23.806   5.147  0.2865 -0.1391  0.0464
 2049DLPE   NH323253   9.772  13.791   3.342 -0.0904  0.0642  0.0657
 2049DLPE   PO423254   9.939  13.497   3.433  0.0632 -0.1001  0.0268
 2049DLPE   GL123255  10.018  13.480   3.719  0.2775 -0.3783 -0.0297
 2049DLPE   GL223256  10.358  13.569   3.696  0.3716 -0.3055 -0.1080
 2049DLPE   C1A23257   9.896  13.267   4.149 -0.0937  0.3053  0.1008
 2049DLPE   D2A23258   9.905  13.312   4.622 -0.1312 -0.1737 -0.1417
 2049DLPE   D3A23259  10.287  13.421   4.859 -0.0034 -0.1036 -0.0697
 2049DLPE   C4A23260  10.588  13.740   4.932 -0.4953 -0.2552  0.0222
 2049DLPE   C1B23261  10.083  13.753   4.021 -0.2141 -0.1352 -0.0853
 2049DLPE   D2B23262   9.687  13.759   4.293  0.0714 -0.1344 -0.0554
 2049DLPE   D3B23263   9.446  13.380   4.341  0.0625 -0.0500 -0.1503
 2049DLPE   C4B23264   8.967  13.254   4.439  0.0859  0.1572 -0.1350
 2050DLPE   NH323265   1.037   7.948   4.029  0.3183  0.2446  0.1734
 2050DLPE   PO423266   1.036   7.631   3.904 -0.1740 -0.0602 -0.3157
 2050DLPE   GL123267   1.070   7.308   4.245  0.1574 -0.3870  0.3195
 2050DLPE   GL223268   1.166   7.043   4.129  0.2937 -0.1473  0.0631
 2050DLPE   C1A23269   1.091   7.471   4.616  0.0913  0.0937 -0.0288
 2050DLPE   D2A23270   0.775   7.586   5.048 -0.0790  0.3372 -0.1075
 2050DLPE   D3A23271   0.858   7.499   5.495 -0.2923 -0.0214  0.4647
 2050DLPE   C4A23272   1.193   7.411   5.865 -0.1198 -0.1624  0.2177
 2050DLPE   C1B23273   1.233   6.858   4.541  0.1959 -0.2655  0.0374
 2050DLPE   D2B23274   1.364   7.169   4.890 -0.0644  0.2614 -0.2997
 2050DLPE   D3B23275   1.213   7.197   5.261  0.1156  0.1724  0.2189
 2050DLPE   C4B23276   1.582   7.110   5.658  0.2976 -0.0691  0.1166
 2051DLPE   NH323277   8.629   5.556   3.229 -0.1305  0.0560 -0.0357
 2051DLPE   PO423278   8.920   5.451   3.207 -0.0415 -0.0411 -0.0905
 2051DLPE   GL123279   8.999   5.672   3.539  0.0650 -0.1169 -0.1906
 2051DLPE   GL223280   9.259   5.715   3.565 -0.2057  0.1593 -0.3365
 2051DLPE   C1A23281   8.860   5.430   3.940 -0.1753 -0.3342  0.0136
 2051DLPE   D2A23282   8.722   4.930   4.018  0.3400 -0.1147  0.0977
 2051DLPE   D3A23283   8.645   5.062   4.449 -0.0686 -0.3422  0.2905
 2051DLPE   C4A23284   8.624   5.338   4.838  0.1755 -0.1495  0.4557
 2051DLPE   C1B23285   9.369   5.474   3.900  0.0921 -0.0381  0.0703
 2051DLPE   D2B23286   9.240   5.489   4.411 -0.3403 -0.1780 -0.0598
 2051DLPE   D3B23287   9.032   5.139   4.724 -0.2705 -0.0632 -0.0206
 2051DLPE   C4B23288   9.073   5.529   5.088 -0.3402 -0.0948  0.0309
 2052DLPE   NH323289  16.227   3.701   3.676 -0.0187  0.2872 -0.0077
 2052DLPE   PO423290  16.168   3.977   3.864 -0.0146 -0.1651  0.0716
 2052DLPE   GL123291  15.909   3.781   4.100  0.4217 -0.1671  0.6653
 2052DLPE   GL223292  16.180   3.614   4.127  0.0024  0.2115 -0.1669
 2052DLPE   C1A23293  15.481   3.794   4.278 -0.1200  0.4988  0.0326
 2052DLPE   D2A23294  15.306   3.935   4.711  0.1292 -0.0414 -0.0421
 2052DLPE   D3A23295  15.298   3.923   5.141  0.3913  0.1512 -0.0694
 2052DLPE   C4A23296  15.046   3.613   5.495  0.4841  0.1600  0.2055
 2052DLPE   C1B23297  16.195   3.567   4.621 -0.2293 -0.1554 -0.1862
 2052DLPE   D2B23298  16.153   3.741   5.082  0.0693 -0.1228  0.2638
 2052DLPE   D3B23299  15.754   3.954   5.080 -0.3570 -0.1664 -0.1542
 2052DLPE   C4B23300  15.823   3.972   4.575 -0.0112  0.0954 -0.2518
 2053DLPE   NH323301  24.497   4.063   3.651 -0.2014 -0.1792 -0.1056
 2053DLPE   PO423302  24.599   3.773   3.684  0.1923  0.0798  0.0408
 2053DLPE   GL123303  24.823   3.542   3.997  0.1757 -0.0455  0.2110
 2053DLPE   GL223304  25.026   3.727   3.998 -0.0732  0.1042  0.0612
 2053DLPE   C1A23305  24.578   3.633   4.419 -0.0437  0.2427  0.1994
 2053DLPE   D2A23306  24.222   3.677   4.739  0.0560  0.4700  0.2172
 2053DLPE   D3A23307  24.041   3.486   5.117 -0.2674 -0.0725 -0.1045
 2053DLPE   C4A23308  23.665   3.269   5.306 -0.1368  0.0685 -0.5666
 2053DLPE   C1B23309  25.080   3.764   4.454  0.0679 -0.0409 -0.2023
 2053DLPE   D2B23310  24.820   3.562   4.861  0.1251 -0.2217  0.0650
 2053DLPE   D3B23311  24.521   3.610   5.216  0.2734 -0.0936 -0.0426
 2053DLPE   C4B23312  24.155   3.797   5.470  0.1810 -0.6607 -0.3140
 2054DLPE   NH323313   9.798   8.232   3.659  0.0553  0.2106 -0.1149
 2054DLPE   PO423314   9.811   7.916   3.805 -0.3697 -0.0554 -0.1784
 2054DLPE   GL123315  10.039   7.815   4.101  0.4142 -0.1263  0.1341
 2054DLPE   GL223316   9.893   7.921   4.327  0.1400  0.0145 -0.2465
 2054DLPE   C1A23317  10.192   7.505   4.359 -0.0069  0.0599  0.0098
 2054DLPE   D2A23318   9.932   7.142   4.642 -0.1842  0.0666  0.2643
 2054DLPE   D3A23319   9.501   7.171   4.590  0.0409 -0.1560 -0.1737
 2054DLPE   C4A23320   9.222   6.865   4.408  0.0606 -0.0953  0.1773
 2054DLPE   C1B23321  10.148   7.877   4.698  0.0866  0.0286  0.0983
 2054DLPE   D2B23322  10.196   7.485   4.934 -0.0146  0.1754  0.0096
 2054DLPE   D3B23323  10.456   7.612   5.277  0.0384 -0.0792  0.3211
 2054DLPE   C4B23324  10.325   7.735   5.739 -0.0560  0.3205  0.0229
 2055DLPE   NH323325   9.689  18.052   3.404 -0.1942  0.2101  0.0970
 2055DLPE   PO423326   9.487  18.307   3.511  0.3175  0.1185  0.1540
 2055DLPE   GL123327   9.535  18.731   3.602  0.1045 -0.2153 -0.1130
 2055DLPE   GL223328   9.287  18.631   3.740 -0.1461  0.2708 -0.2814
 2055DLPE   C1A23329   9.726  19.047   3.804  0.0161  0.0612  0.0659
 2055DLPE   D2A23330   9.972  19.363   4.051 -0.0678 -0.3207  0.3372
 2055DLPE   D3A23331  10.126  19.402   4.430 -0.2227  0.0758 -0.2317
 2055DLPE   C4A23332  10.285  19.696   4.788 -0.1840 -0.0873  0.2597
 2055DLPE   C1B23333   9.405  18.915   4.106 -0.0714 -0.0320 -0.1399
 2055DLPE   D2B23334   9.767  19.043   4.408  0.0176 -0.3480  0.0797
 2055DLPE   D3B23335   9.630  19.331   4.803 -0.1587  0.0084  0.1455
 2055DLPE   C4B23336   9.725  18.952   5.166  0.0083  0.2658  0.1472
 2056DLPE   NH323337   0.311  26.139   3.477  0.1272  0.1459  0.0344
 2056DLPE   PO423338   0.371  25.830   3.368  0.0996  0.0904  0.0699
 2056DLPE   GL123339   0.410  25.767   3.812  0.0284 -0.0012  0.2228
 2056DLPE   GL223340   0.541  25.515   3.786 -0.1445  0.4368  0.3583
 2056DLPE   C1A23341   0.259  25.895   4.241  0.0661  0.1963  0.1336
 2056DLPE   D2A23342   0.059  26.138   4.587 -0.4130 -0.0679 -0.1141
 2056DLPE   D3A23343   0.098  26.183   4.953  0.1181  0.3038 -0.0845
 2056DLPE   C4A23344   0.071  26.075   5.420  0.1668  0.0823 -0.1215
 2056DLPE   C1B23345   0.230  25.430   4.090 -0.2174  0.1847  0.2663
 2056DLPE   D2B23346   0.253  25.249   4.550  0.1658 -0.1840 -0.1567
 2056DLPE   D3B23347   0.182  25.673   4.870  0.0415 -0.1977  0.5601
 2056DLPE   C4B23348  -0.040  25.638   5.220  0.1404  0.3074 -0.1848
 2057DLPE   NH323349  15.315  24.057   3.405  0.1099  0.2491 -0.0533
 2057DLPE   PO423350  15.223  24.143   3.700  0.4446 -0.1480 -0.0213
 2057DLPE   GL123351  15.168  23.941   4.032  0.0370 -0.2288  0.2967
 2057DLPE   GL223352  15.372  24.122   4.209 -0.0554 -0.0018  0.1868
 2057DLPE   C1A23353  14.999  23.714   4.243 -0.1508 -0.0969 -0.2131
 2057DLPE   D2A23354  14.670  23.494   4.457  0.2512 -0.0410 -0.0268
 2057DLPE   D3A23355  14.578  23.502   4.882 -0.2767 -0.3027  0.1899
 2057DLPE   C4A23356  14.416  23.181   5.211 -0.1794 -0.3160 -0.1044
 2057DLPE   C1B23357  15.269  24.284   4.573 -0.0143 -0.1130  0.2492
 2057DLPE   D2B23358  15.385  24.042   4.963  0.0590  0.1067 -0.0627
 2057DLPE   D3B23359  15.874  23.934   5.004  0.0823  0.3427 -0.0557
 2057DLPE   C4B23360  16.255  23.791   5.277 -0.1954  0.0708  0.1735
 2058DLPE   NH323361   3.920  16.141   3.159  0.1433  0.0408 -0.0349
 2058DLPE   PO423362   3.794  15.835   3.075  0.0353 -0.0487 -0.0600
 2058DLPE   GL123363   3.837  15.904   3.563  0.0660  0.0077 -0.2347
 2058DLPE   GL223364   3.642  15.720   3.464 -0.0052 -0.0272  0.2878
 2058DLPE   C1A23365   3.869  15.709   3.936  0.0205 -0.0052 -0.2164
 2058DLPE   D2A23366   3.830  15.327   4.269  0.0784 -0.1092 -0.0596
 2058DLPE   D3A23367   3.727  15.196   4.731  0.2311 -0.1223  0.0755
 2058DLPE   C4A23368   3.541  15.477   5.035  0.0693  0.0218 -0.2789
 2058DLPE   C1B23369   3.552  15.309   3.821 -0.1637 -0.0510  0.2432
 2058DLPE   D2B23370   3.420  15.108   4.316 -0.1189 -0.1406 -0.1137
 2058DLPE   D3B23371   3.423  15.615   4.425 -0.1085  0.2723 -0.1031
 2058DLPE   C4B23372   3.594  16.054   4.363  0.1801 -0.2340  0.3129
 2059DLPE   NH323373  15.501  22.357   3.552 -0.1998  0.1036 -0.1130
 2059DLPE   PO423374  15.415  22.716   3.490  0.2395  0.1569  0.2729
 2059DLPE   GL123375  15.407  22.854   3.930 -0.2860 -0.2267  0.3506
 2059DLPE   GL223376  15.129  22.849   3.914  0.0640  0.0510 -0.1165
 2059DLPE   C1A23377  15.543  22.554   4.182 -0.1181 -0.2950  0.3262
 2059DLPE   D2A23378  15.554  22.589   4.680 -0.2820 -0.1445 -0.0577
 2059DLPE   D3A23379  15.721  22.379   5.044 -0.2784 -0.1283 -0.1952
 2059DLPE   C4A23380  15.536  22.367   5.435 -0.0044  0.0961  0.1444
 2059DLPE   C1B23381  15.040  22.577   4.252 -0.3146 -0.2112  0.0238
 2059DLPE   D2B23382  15.005  22.603   4.757  0.1493  0.2310  0.2015
 2059DLPE   D3B23383  14.589  22.459   4.862  0.0274  0.0416 -0.1217
 2059DLPE   C4B23384  14.471  22.453   5.363  0.2241  0.1184 -0.0069
 2060DLPE   NH323385  23.163   4.297   3.644 -0.0290  0.0341  0.0446
 2060DLPE   PO423386  23.508   4.351   3.628 -0.0146  0.1474 -0.2658
 2060DLPE   GL123387  23.599   4.224   3.988  0.0682  0.2884 -0.4607
 2060DLPE   GL223388  23.527   4.487   4.081 -0.2662  0.0807  0.0745
 2060DLPE   C1A23389  23.807   4.018   4.281 -0.0436  0.1054 -0.2659
 2060DLPE   D2A23390  23.772   4.141   4.781  0.2582  0.2837  0.1016
 2060DLPE   D3A23391  24.052   4.056   5.064  0.0131  0.1781  0.1035
 2060DLPE   C4A23392  24.376   4.431   5.142  0.2666  0.2492 -0.2290
 2060DLPE   C1B23393  23.634   4.484   4.470 -0.0123  0.3647 -0.0420
 2060DLPE   D2B23394  23.416   4.491   4.909  0.0998  0.0390 -0.0628
 2060DLPE   D3B23395  23.471   4.687   5.321  0.1261 -0.1315 -0.2442
 2060DLPE   C4B23396  23.688   4.753   5.760 -0.1514  0.2404 -0.1558
 2061DLPE   NH323397  26.875  12.333   3.716 -0.1390  0.2051  0.1340
 2061DLPE   PO423398  26.727  12.083   3.535 -0.1429  0.1526 -0.0450
 2061DLPE   GL123399  26.723  11.878   3.898  0.2464 -0.0591 -0.1635
 2061DLPE   GL223400  26.774  11.629   3.822  0.1576 -0.1923 -0.1529
 2061DLPE   C1A23401  26.759  12.086   4.337  0.0792 -0.0279  0.1016
 2061DLPE   D2A23402  26.567  12.272   4.799 -0.3357 -0.2090 -0.3772
 2061DLPE   D3A23403  26.831  12.115   5.142 -0.2795  0.1529 -0.0727
 2061DLPE   C4A23404  26.883  11.765   5.428  0.1345 -0.0690 -0.0074
 2061DLPE   C1B23405  26.833  11.307   4.029 -0.1910  0.2017 -0.4232
 2061DLPE   D2B23406  26.568  11.129   4.411  0.0066 -0.1394  0.1688
 2061DLPE   D3B23407  26.450  11.330   4.774 -0.0298  0.0207  0.1338
 2061DLPE   C4B23408  26.695  11.184   5.205 -0.3088  0.1173 -0.0445
 2062DLPE   NH323409   9.813  27.515   3.122 -0.0162  0.0046  0.2983
 2062DLPE   PO423410   9.648  27.419   3.404  0.2131  0.1849 -0.1026
 2062DLPE   GL123411   9.542  27.598   3.764 -0.0088 -0.1883  0.3263
 2062DLPE   GL223412   9.552  27.301   3.838  0.3002  0.0402 -0.1672
 2062DLPE   C1A23413   9.226  27.812   4.026 -0.0999 -0.2472  0.1852
 2062DLPE   D2A23414   9.284  27.987   4.437 -0.3796 -0.0034  0.2019
 2062DLPE   D3A23415   8.977  28.317   4.383  0.1311 -0.2903 -0.0671
 2062DLPE   C4A23416   8.844  28.203   3.951  0.1302  0.1461 -0.3163
 2062DLPE   C1B23417   9.715  27.476   4.272  0.2921 -0.0943  0.1060
 2062DLPE   D2B23418   9.673  27.705   4.688  0.0674 -0.0665  0.0306
 2062DLPE   D3B23419   9.699  27.655   5.120 -0.1963 -0.0595 -0.0773
 2062DLPE   C4B23420   9.994  27.382   5.475  0.3561  0.1648  0.0523
 2063DLPE   NH323421   5.046  24.683   3.971 -0.1739  0.1434  0.1922
 2063DLPE   PO423422   5.268  24.428   3.990 -0.1260 -0.2123  0.0943
 2063DLPE   GL123423   5.278  24.537   4.433  0.0774 -0.0750  0.0633
 2063DLPE   GL223424   5.283  24.850   4.378  0.0642  0.2012 -0.1237
 2063DLPE   C1A23425   5.207  24.625   4.836 -0.0564 -0.0297  0.1182
 2063DLPE   D2A23426   5.129  24.404   5.285 -0.4037  0.0629 -0.2224
 2063DLPE   D3A23427   4.941  24.656   5.661 -0.0366  0.0530 -0.2916
 2063DLPE   C4A23428   4.835  24.768   5.195  0.1727  0.1366 -0.1362
 2063DLPE   C1B23429   5.199  25.223   4.599 -0.0810 -0.0185 -0.0708
 2063DLPE   D2B23430   5.027  25.246   5.102 -0.0309  0.0791  0.1812
 2063DLPE   D3B23431   5.189  25.290   5.541  0.4375  0.1108 -0.4260
 2063DLPE   C4B23432   5.065  25.736   5.612 -0.2837  0.0528 -0.0985
 2064DLPE   NH323433   8.583  20.669   3.403  0.2332  0.1925  0.1895
 2064DLPE   PO423434   8.532  20.356   3.385  0.0191 -0.4758 -0.2601
 2064DLPE   GL123435   8.462  20.300   3.766 -0.2561  0.1701 -0.0081
 2064DLPE   GL223436   8.246  20.050   3.868 -0.1320  0.3926  0.0943
 2064DLPE   C1A23437   8.800  20.204   3.931  0.0085  0.0942  0.1127
 2064DLPE   D2A23438   9.018  20.072   4.374  0.3779  0.0049  0.1219
 2064DLPE   D3A23439   9.157  19.753   4.033  0.0050  0.2785 -0.1501
 2064DLPE   C4A23440   9.048  19.289   3.982 -0.1756  0.0481 -0.2378
 2064DLPE   C1B23441   8.528  19.774   4.068 -0.0663  0.1242 -0.2302
 2064DLPE   D2B23442   8.877  19.498   4.399 -0.0241 -0.0750 -0.1460
 2064DLPE   D3B23443   9.220  19.219   4.482 -0.1829 -0.0553 -0.1047
 2064DLPE   C4B23444   9.021  19.299   4.909  0.0861  0.0870 -0.0397
 2065DLPE   NH323445   5.577   9.471   2.884  0.5092  0.1637  0.2208
 2065DLPE   PO423446   5.718   9.178   2.969 -0.4586 -0.2815  0.4007
 2065DLPE   GL123447   5.752   9.032   3.382  0.0727  0.2024 -0.6913
 2065DLPE   GL223448   5.938   9.191   3.375 -0.0084  0.4294  0.0959
 2065DLPE   C1A23449   5.506   9.014   3.756 -0.2672 -0.3270 -0.0951
 2065DLPE   D2A23450   5.522   8.864   4.245 -0.1899  0.0188 -0.0166
 2065DLPE   D3A23451   5.413   9.136   4.575 -0.1476 -0.1573 -0.0589
 2065DLPE   C4A23452   5.661   8.744   4.706  0.1235  0.3796 -0.4358
 2065DLPE   C1B23453   5.968   9.397   3.744 -0.0824 -0.2202  0.1536
 2065DLPE   D2B23454   6.298   9.343   4.168 -0.0747 -0.2295 -0.1105
 2065DLPE   D3B23455   6.105   9.696   4.273 -0.0387 -0.0761  0.0408
 2065DLPE   C4B23456   5.767   9.633   4.628  0.1321  0.3054 -0.0609
 2066DLPE   NH323457  20.705  12.469   3.287  0.0160  0.0359 -0.0524
 2066DLPE   PO423458  20.958  12.689   3.473  0.2638  0.2580 -0.0638
 2066DLPE   GL123459  20.929  12.336   3.773  0.2071 -0.0019 -0.1605
 2066DLPE   GL223460  20.688  12.258   3.682  0.0181  0.2805 -0.0018
 2066DLPE   C1A23461  20.951  12.087   4.126 -0.1525 -0.0799 -0.1535
 2066DLPE   D2A23462  21.047  12.163   4.624 -0.1177 -0.1217 -0.0042
 2066DLPE   D3A23463  20.920  12.395   5.012  0.0089  0.1067 -0.0395
 2066DLPE   C4A23464  21.122  12.788   5.061 -0.1375 -0.0750 -0.3303
 2066DLPE   C1B23465  20.462  12.230   4.103 -0.1685  0.0363  0.0744
 2066DLPE   D2B23466  20.532  12.024   4.525 -0.0221  0.2417  0.1046
 2066DLPE   D3B23467  20.509  11.993   5.024 -0.1825  0.0353  0.1516
 2066DLPE   C4B23468  20.184  11.698   5.145 -0.1320 -0.1957 -0.1415
 2067DLPE   NH323469  11.833  12.039   3.068 -0.0172 -0.0590 -0.4132
 2067DLPE   PO423470  12.070  11.786   3.052 -0.0709 -0.0277 -0.1893
 2067DLPE   GL123471  11.974  11.750   3.496 -0.1730 -0.1097 -0.0217
 2067DLPE   GL223472  11.882  11.486   3.554  0.0149  0.1426 -0.1667
 2067DLPE   C1A23473  11.889  11.937   3.892  0.1727 -0.1628  0.0467
 2067DLPE   D2A23474  11.735  11.883   4.348 -0.2942  0.1923 -0.1283
 2067DLPE   D3A23475  11.388  11.917   4.599  0.0896 -0.0774  0.1498
 2067DLPE   C4A23476  11.333  11.917   5.070 -0.3456  0.1297 -0.0362
 2067DLPE   C1B23477  12.184  11.312   3.827  0.0675 -0.0834  0.1861
 2067DLPE   D2B23478  12.622  11.280   4.111 -0.2184 -0.1468 -0.0574
 2067DLPE   D3B23479  12.729  11.670   4.302  0.0089  0.0746 -0.1267
 2067DLPE   C4B23480  13.134  11.477   4.314 -0.0433  0.1243  0.0742
 2068DLPE   NH323481  26.580  18.430   3.758  0.0969 -0.0541 -0.1245
 2068DLPE   PO423482  26.342  18.371   3.540 -0.0780 -0.0966 -0.0659
 2068DLPE   GL123483  26.103  18.503   3.871  0.1184 -0.1052  0.2205
 2068DLPE   GL223484  25.984  18.683   3.746  0.0176 -0.3517  0.1395
 2068DLPE   C1A23485  25.867  18.381   4.211 -0.0922 -0.0750 -0.4917
 2068DLPE   D2A23486  25.932  17.974   4.540  0.1816  0.1744 -0.0064
 2068DLPE   D3A23487  25.767  17.777   4.871  0.1582 -0.1596  0.0453
 2068DLPE   C4A23488  25.556  17.946   5.343  0.1675 -0.0678  0.0546
 2068DLPE   C1B23489  25.856  18.944   4.110  0.2570  0.0102  0.1650
 2068DLPE   D2B23490  25.608  19.095   4.478 -0.0491  0.1034 -0.3868
 2068DLPE   D3B23491  25.211  19.255   4.562 -0.1341  0.0379  0.0709
 2068DLPE   C4B23492  25.020  18.968   4.924 -0.1346 -0.3593 -0.0775
 2069DLPE   NH323493  25.727  18.431   2.818 -0.0355 -0.0904  0.0505
 2069DLPE   PO423494  25.568  18.326   3.083  0.0676 -0.3188  0.1510
 2069DLPE   GL123495  25.649  18.452   3.480 -0.6008 -0.2683  0.1795
 2069DLPE   GL223496  25.844  18.237   3.541 -0.0657  0.4624 -0.0323
 2069DLPE   C1A23497  25.538  18.702   3.846  0.5150  0.0967 -0.3313
 2069DLPE   D2A23498  25.447  18.644   4.389 -0.0403 -0.0201  0.0178
 2069DLPE   D3A23499  25.810  18.651   4.658  0.2614 -0.2671  0.2046
 2069DLPE   C4A23500  25.824  18.239   5.019  0.1566  0.1085 -0.0029
 2069DLPE   C1B23501  25.609  18.047   3.862 -0.1156 -0.0366 -0.1835
 2069DLPE   D2B23502  25.370  17.921   4.265  0.0525 -0.0829 -0.0757
 2069DLPE   D3B23503  25.348  18.100   4.683 -0.0769 -0.0953 -0.0290
 2069DLPE   C4B23504  25.385  18.546   4.930 -0.3453  0.1863 -0.1059
 2070DLPE   NH323505   0.263  15.917   3.441 -0.0148  0.0473  0.3894
 2070DLPE   PO423506   0.481  15.960   3.685 -0.2040 -0.1132  0.0207
 2070DLPE   GL123507   0.272  15.818   4.028 -0.1634 -0.2716 -0.3718
 2070DLPE   GL223508   0.460  16.115   4.182  0.1029  0.1048 -0.2546
 2070DLPE   C1A23509  -0.126  15.878   4.320 -0.0458  0.1375 -0.0993
 2070DLPE   D2A23510  -0.360  15.648   4.648  0.2123 -0.1330  0.0595
 2070DLPE   D3A23511  -0.142  15.517   4.983  0.1931 -0.2911  0.1275
 2070DLPE   C4A23512   0.021  15.253   5.316 -0.1229 -0.4467  0.0747
 2070DLPE   C1B23513   0.289  16.166   4.580 -0.0998  0.0778  0.2653
 2070DLPE   D2B23514  -0.100  16.044   4.824 -0.3094 -0.5157  0.1591
 2070DLPE   D3B23515  -0.145  16.281   5.254  0.1656  0.2782  0.1202
 2070DLPE   C4B23516  -0.317  16.361   5.763 -0.1240  0.0421  0.1293
 2071DLPE   NH323517  26.626   3.845   3.498 -0.1427 -0.1540 -0.2472
 2071DLPE   PO423518  26.485   4.169   3.593 -0.1319 -0.3125 -0.0269
 2071DLPE   GL123519  26.683   4.361   3.914  0.3696  0.3044 -0.0283
 2071DLPE   GL223520  26.403   4.315   4.094  0.1793  0.2164 -0.1189
 2071DLPE   C1A23521  27.004   4.299   4.225  0.2053 -0.0833  0.1275
 2071DLPE   D2A23522  27.126   4.311   4.713  0.3921 -0.3504 -0.2076
 2071DLPE   D3A23523  27.403   4.497   5.009  0.0756 -0.2778  0.0207
 2071DLPE   C4A23524  27.535   4.784   5.510  0.2718 -0.0960  0.3229
 2071DLPE   C1B23525  26.448   4.376   4.508  0.4617 -0.2086  0.0079
 2071DLPE   D2B23526  26.036   4.290   4.727 -0.2466 -0.3416  0.4249
 2071DLPE   D3B23527  25.920   4.249   5.155 -0.0206  0.1681  0.3834
 2071DLPE   C4B23528  25.957   4.298   5.632  0.0614  0.0044  0.1013
 2072DLPE   NH323529   8.058  20.311   3.483 -0.4744  0.0982  0.3924
 2072DLPE   PO423530   8.161  20.579   3.669  0.0288  0.2550  0.0200
 2072DLPE   GL123531   8.168  20.478   4.046  0.1327  0.0400  0.0480
 2072DLPE   GL223532   8.026  20.759   4.151  0.4014 -0.3272 -0.0057
 2072DLPE   C1A23533   8.434  20.237   4.265  0.0811  0.1146 -0.0577
 2072DLPE   D2A23534   8.607  19.914   4.525  0.2088  0.0747  0.0528
 2072DLPE   D3A23535   8.954  19.785   4.777 -0.0518 -0.0130 -0.1323
 2072DLPE   C4A23536   9.010  20.158   5.042 -0.0269 -0.3387 -0.2769
 2072DLPE   C1B23537   7.697  20.642   4.451  0.0565 -0.0715  0.1458
 2072DLPE   D2B23538   7.629  20.578   4.958 -0.1151  0.2189  0.2248
 2072DLPE   D3B23539   7.575  20.946   5.362  0.1247  0.0174  0.2909
 2072DLPE   C4B23540   7.918  21.202   5.543  0.0141  0.0105 -0.0540
 2073DLPE   NH323541  23.502  10.860   3.486  0.1216  0.0330 -0.1592
 2073DLPE   PO423542  23.748  10.800   3.690  0.0744 -0.0235  0.2971
 2073DLPE   GL123543  23.534  10.851   4.008  0.2698  0.1454 -0.2898
 2073DLPE   GL223544  23.231  10.781   3.897  0.1675  0.3105 -0.0557
 2073DLPE   C1A23545  23.673  10.676   4.427 -0.0555  0.3220  0.0446
 2073DLPE   D2A23546  23.707  10.343   4.787  0.0660  0.1158  0.1935
 2073DLPE   D3A23547  23.752  10.605   5.158 -0.0194  0.4141 -0.1493
 2073DLPE   C4A23548  23.911  10.431   5.555  0.1800 -0.0662  0.2927
 2073DLPE   C1B23549  23.145  10.626   4.310  0.0722  0.3538 -0.0542
 2073DLPE   D2B23550  23.281  10.211   4.558 -0.0686 -0.1160  0.2958
 2073DLPE   D3B23551  23.242  10.616   4.756  0.3345  0.0828 -0.0409
 2073DLPE   C4B23552  23.328  10.332   5.071  0.3653  0.0409 -0.0962
 2074DLPE   NH323553  24.236   5.403   3.856 -0.1186 -0.0121 -0.2979
 2074DLPE   PO423554  24.353   5.181   3.591  0.1221 -0.2012 -0.0029
 2074DLPE   GL123555  24.157   4.873   3.847  0.1909  0.1312 -0.0871
 2074DLPE   GL223556  24.395   5.015   4.032 -0.2132 -0.2961 -0.2039
 2074DLPE   C1A23557  24.116   4.593   4.192  0.0590  0.0659  0.0376
 2074DLPE   D2A23558  24.118   4.514   4.658  0.1654  0.1302  0.0999
 2074DLPE   D3A23559  23.871   4.532   5.015  0.1816 -0.1903  0.0314
 2074DLPE   C4A23560  24.066   4.804   5.363 -0.0347  0.1373 -0.3457
 2074DLPE   C1B23561  24.393   5.144   4.476 -0.3454 -0.2000  0.2742
 2074DLPE   D2B23562  24.274   4.960   4.898  0.1356  0.0537  0.0203
 2074DLPE   D3B23563  24.578   4.914   5.239  0.4121  0.2168 -0.2555
 2074DLPE   C4B23564  24.696   4.526   5.517 -0.1261 -0.1739  0.0894
 2075DLPE   NH323565  19.978   9.463   3.691  0.0612 -0.0047 -0.0920
 2075DLPE   PO423566  20.259   9.307   3.826  0.1368  0.1734  0.1234
 2075DLPE   GL123567  20.058   9.224   4.121 -0.1756 -0.2440 -0.3046
 2075DLPE   GL223568  19.841   9.055   4.090  0.0212 -0.3955 -0.5129
 2075DLPE   C1A23569  19.832   9.474   4.391  0.1367  0.1694 -0.1330
 2075DLPE   D2A23570  19.586   9.300   4.881  0.1753 -0.3589  0.2553
 2075DLPE   D3A23571  19.390   8.925   4.946  0.1325 -0.0105 -0.0157
 2075DLPE   C4A23572  19.010   9.198   4.813  0.2715  0.2303 -0.0925
 2075DLPE   C1B23573  19.600   9.048   4.466 -0.1179  0.0664 -0.0441
 2075DLPE   D2B23574  19.120   8.903   4.321 -0.2856  0.3379  0.2161
 2075DLPE   D3B23575  18.727   9.060   4.394 -0.1195 -0.0819  0.2021
 2075DLPE   C4B23576  18.501   8.804   4.801 -0.3204  0.0986  0.4220
 2076DLPE   NH323577  20.143  23.872   3.469  0.0761  0.0129 -0.3518
 2076DLPE   PO423578  20.149  24.187   3.634 -0.0306 -0.0485 -0.0962
 2076DLPE   GL123579  20.245  24.236   4.047 -0.1434  0.1361 -0.0100
 2076DLPE   GL223580  20.501  24.284   3.973  0.1839  0.1490 -0.2156
 2076DLPE   C1A23581  20.083  24.332   4.471 -0.0689 -0.1018  0.0160
 2076DLPE   D2A23582  20.361  24.417   4.798 -0.3323 -0.0085  0.2566
 2076DLPE   D3A23583  20.668  24.507   5.125  0.3334  0.1573  0.0119
 2076DLPE   C4A23584  20.743  24.935   5.219  0.0139 -0.3917  0.2536
 2076DLPE   C1B23585  20.551  24.488   4.343  0.1584  0.0220 -0.1838
 2076DLPE   D2B23586  20.878  24.747   4.621 -0.0478 -0.1138 -0.0532
 2076DLPE   D3B23587  21.130  24.664   5.036  0.0939 -0.1493  0.2488
 2076DLPE   C4B23588  21.068  24.455   5.487 -0.3934 -0.2806 -0.1244
 2077DLPE   NH323589   2.642  12.310   3.275  0.0294 -0.0092  0.3333
 2077DLPE   PO423590   2.975  12.220   3.273  0.0844  0.0590 -0.3655
 2077DLPE   GL123591   3.050  12.329   3.671  0.1339 -0.0735  0.1496
 2077DLPE   GL223592   2.805  12.241   3.725  0.1627  0.2228  0.0663
 2077DLPE   C1A23593   3.342  12.201   3.986 -0.0295 -0.1440  0.2462
 2077DLPE   D2A23594   3.448  12.244   4.487 -0.0970  0.3269 -0.2300
 2077DLPE   D3A23595   3.466  12.064   4.941  0.0876  0.0153  0.4537
 2077DLPE   C4A23596   3.804  11.704   5.057 -0.1110 -0.2747 -0.0443
 2077DLPE   C1B23597   2.866  11.970   4.063  0.1392 -0.2847  0.2362
 2077DLPE   D2B23598   3.182  11.715   4.483  0.1410  0.2090 -0.1645
 2077DLPE   D3B23599   3.603  11.578   4.621  0.3562 -0.2164 -0.3444
 2077DLPE   C4B23600   3.635  11.080   4.563  0.0719 -0.2069 -0.5322
 2078DLPE   NH323601  13.695   5.591   2.947 -0.0054  0.1368  0.0247
 2078DLPE   PO423602  13.539   5.371   3.209  0.2624 -0.0007  0.1707
 2078DLPE   GL123603  13.439   5.442   3.582  0.2004 -0.2765 -0.2138
 2078DLPE   GL223604  13.200   5.549   3.459 -0.0180 -0.1704 -0.2593
 2078DLPE   C1A23605  13.607   5.352   4.044 -0.5323  0.2201  0.5452
 2078DLPE   D2A23606  13.679   5.079   4.465  0.0875 -0.2282 -0.3492
 2078DLPE   D3A23607  13.669   5.337   4.827  0.1587  0.4887 -0.5048
 2078DLPE   C4A23608  14.020   5.614   4.824  0.1557 -0.0305 -0.0079
 2078DLPE   C1B23609  12.928   5.806   3.750  0.1109 -0.1066 -0.0118
 2078DLPE   D2B23610  12.733   5.706   4.191  0.1725  0.0984 -0.0410
 2078DLPE   D3B23611  12.370   5.673   4.311  0.2265 -0.0934  0.4241
 2078DLPE   C4B23612  12.305   6.051   4.463 -0.1624  0.1478 -0.0141
 2079DLPE   NH323613  11.968  14.266   3.610 -0.0497  0.1932 -0.0776
 2079DLPE   PO423614  11.812  14.551   3.825 -0.2736 -0.0128  0.0869
 2079DLPE   GL123615  11.794  14.468   4.239  0.1842  0.0673  0.3626
 2079DLPE   GL223616  11.718  14.192   4.045 -0.1934  0.0561 -0.2325
 2079DLPE   C1A23617  11.712  14.513   4.610  0.0153 -0.3032 -0.0203
 2079DLPE   D2A23618  11.772  14.811   5.005 -0.1548  0.3705  0.1857
 2079DLPE   D3A23619  11.308  14.895   4.970  0.0355  0.0280  0.0878
 2079DLPE   C4A23620  11.231  15.312   5.218  0.3372  0.2193  0.1990
 2079DLPE   C1B23621  11.586  14.019   4.482 -0.1316  0.1828  0.0077
 2079DLPE   D2B23622  11.498  13.653   4.804  0.1684 -0.2335  0.0313
 2079DLPE   D3B23623  11.730  13.430   5.131  0.1321 -0.0351 -0.0551
 2079DLPE   C4B23624  12.096  13.072   5.151 -0.1903  0.1381  0.4602
 2080DLPE   NH323625  21.391   5.423   3.176  0.1541 -0.0249 -0.0985
 2080DLPE   PO423626  21.122   5.233   3.396 -0.1138 -0.2233 -0.1700
 2080DLPE   GL123627  21.161   5.304   3.867 -0.2440 -0.0278 -0.0133
 2080DLPE   GL223628  21.410   5.140   3.764 -0.2916 -0.2295 -0.0777
 2080DLPE   C1A23629  20.866   5.252   4.209 -0.0296  0.0513 -0.2295
 2080DLPE   D2A23630  20.960   4.981   4.617  0.1486  0.0307 -0.4576
 2080DLPE   D3A23631  20.963   5.337   4.885 -0.1618  0.1403 -0.1401
 2080DLPE   C4A23632  21.038   5.671   5.170  0.1737 -0.1502 -0.0469
 2080DLPE   C1B23633  21.354   4.973   4.135  0.1251  0.0723  0.1501
 2080DLPE   D2B23634  21.321   4.492   4.403  0.2489  0.2509 -0.3209
 2080DLPE   D3B23635  21.242   4.281   4.809  0.2080  0.2231  0.0495
 2080DLPE   C4B23636  21.583   4.401   5.016 -0.1195 -0.0629 -0.0588
 2081DLPE   NH323637  26.532   3.049   3.757 -0.0116 -0.0966  0.0269
 2081DLPE   PO423638  26.623   3.364   3.726 -0.2424 -0.1597 -0.0248
 2081DLPE   GL123639  26.695   3.629   4.092  0.2739 -0.0779  0.2346
 2081DLPE   GL223640  26.887   3.513   4.125  0.3388  0.1164  0.2307
 2081DLPE   C1A23641  26.620   3.876   4.425  0.0265  0.4263  0.0952
 2081DLPE   D2A23642  26.430   3.954   4.887 -0.0666  0.0153  0.0221
 2081DLPE   D3A23643  26.849   3.971   5.039  0.1408  0.4335  0.0880
 2081DLPE   C4A23644  27.068   4.226   5.329  0.0819  0.3487 -0.0733
 2081DLPE   C1B23645  27.132   3.635   4.509 -0.0067 -0.0120 -0.0891
 2081DLPE   D2B23646  27.097   3.569   5.011 -0.1461  0.0345 -0.1443
 2081DLPE   D3B23647  27.464   3.805   5.187  0.0537  0.2282 -0.2008
 2081DLPE   C4B23648  27.737   4.150   5.027  0.3436  0.1816 -0.2190
 2082DLPE   NH323649  13.712   3.075   4.014  0.2185 -0.0858 -0.4490
 2082DLPE   PO423650  14.046   2.949   4.105  0.0174 -0.1408 -0.0040
 2082DLPE   GL123651  13.943   2.847   4.513  0.0547 -0.2360  0.1407
 2082DLPE   GL223652  13.728   2.984   4.566 -0.2155  0.0713 -0.1076
 2082DLPE   C1A23653  14.049   2.740   4.911 -0.0312 -0.0842 -0.0287
 2082DLPE   D2A23654  14.270   2.839   5.295 -0.0536 -0.3583  0.1394
 2082DLPE   D3A23655  14.059   3.210   5.445  0.2314  0.0875  0.0570
 2082DLPE   C4A23656  14.237   3.522   5.240 -0.1846 -0.1771 -0.1872
 2082DLPE   C1B23657  13.406   2.869   4.821  0.0964 -0.1823 -0.3161
 2082DLPE   D2B23658  13.182   2.892   5.310  0.0242 -0.2907  0.0018
 2082DLPE   D3B23659  13.094   3.185   5.629  0.0717  0.0232 -0.1883
 2082DLPE   C4B23660  13.345   3.238   6.099 -0.1378  0.3151  0.3029
 2083DLPE   NH323661  21.119  25.404   2.921  0.0150 -0.0236  0.0367
 2083DLPE   PO423662  21.423  25.267   2.987 -0.2293  0.3332  0.1183
 2083DLPE   GL123663  21.618  25.215   3.318 -0.1109 -0.4620  0.2622
 2083DLPE   GL223664  21.612  24.972   3.431  0.2132  0.1103  0.2083
 2083DLPE   C1A23665  21.540  25.373   3.726  0.3558 -0.1245  0.3593
 2083DLPE   D2A23666  21.381  25.717   3.983 -0.1009  0.0519  0.1546
 2083DLPE   D3A23667  21.258  25.731   4.435 -0.0714  0.0724 -0.1383
 2083DLPE   C4A23668  20.858  25.732   4.709 -0.0587  0.0469 -0.2880
 2083DLPE   C1B23669  21.257  24.877   3.745 -0.0318 -0.0886 -0.0316
 2083DLPE   D2B23670  21.261  24.659   4.167 -0.0285 -0.0843 -0.1334
 2083DLPE   D3B23671  21.336  24.868   4.577  0.2773  0.0295  0.2789
 2083DLPE   C4B23672  21.189  25.256   4.918 -0.0365 -0.1239  0.2407
 2084DLPE   NH323673  26.050  12.291   3.540 -0.0797 -0.0080  0.3884
 2084DLPE   PO423674  26.343  12.342   3.672  0.3363  0.0807 -0.2454
 2084DLPE   GL123675  26.388  12.312   4.080  0.0934 -0.0258  0.3500
 2084DLPE   GL223676  26.299  12.009   4.161 -0.0967 -0.2041 -0.1124
 2084DLPE   C1A23677  26.433  12.647   4.300 -0.0458  0.0100 -0.2269
 2084DLPE   D2A23678  26.480  12.861   4.735 -0.2382  0.0031  0.1408
 2084DLPE   D3A23679  26.175  12.551   4.896 -0.1371 -0.3969 -0.2314
 2084DLPE   C4A23680  26.320  12.181   5.274 -0.2168  0.1221  0.2002
 2084DLPE   C1B23681  26.317  11.890   4.634  0.1058  0.0135  0.0133
 2084DLPE   D2B23682  26.387  11.760   5.115  0.0483  0.0277 -0.4547
 2084DLPE   D3B23683  26.226  11.394   5.362 -0.4680  0.0650  0.0094
 2084DLPE   C4B23684  26.156  10.962   5.189 -0.0067 -0.3142  0.0760
 2085DLPE   NH323685  25.292  16.203   3.726 -0.2024  0.2065  0.3910
 2085DLPE   PO423686  25.306  15.858   3.824  0.1994 -0.1166 -0.0828
 2085DLPE   GL123687  25.079  15.973   4.137  0.4261 -0.0631  0.3649
 2085DLPE   GL223688  25.177  16.174   4.215 -0.0248 -0.3095  0.5076
 2085DLPE   C1A23689  24.738  15.957   4.389 -0.0273  0.0401  0.0408
 2085DLPE   D2A23690  24.468  15.879   4.818  0.2272 -0.1262 -0.0918
 2085DLPE   D3A23691  24.237  15.620   5.082 -0.2550 -0.1717 -0.2739
 2085DLPE   C4A23692  23.925  15.299   5.090  0.2009  0.0497 -0.1115
 2085DLPE   C1B23693  25.063  16.242   4.618  0.1299 -0.0070 -0.1470
 2085DLPE   D2B23694  24.957  16.273   5.150  0.0160  0.1247  0.2571
 2085DLPE   D3B23695  24.964  15.889   5.454 -0.0735  0.2450 -0.0016
 2085DLPE   C4B23696  24.483  16.005   5.403 -0.1865 -0.1876 -0.0989
 2086DLPE   NH323697   3.887  14.708   3.162  0.0732  0.1745 -0.2399
 2086DLPE   PO423698   4.131  14.955   3.102 -0.0144  0.3273  0.1942
 2086DLPE   GL123699   4.147  15.041   3.486 -0.1474  0.1537  0.3827
 2086DLPE   GL223700   3.941  14.947   3.589 -0.3673  0.2040  0.0593
 2086DLPE   C1A23701   4.193  15.410   3.771 -0.1508 -0.2703 -0.2356
 2086DLPE   D2A23702   4.374  15.404   4.267 -0.2278  0.0626  0.2397
 2086DLPE   D3A23703   4.480  15.654   4.626 -0.0964 -0.1425  0.0430
 2086DLPE   C4A23704   4.559  15.640   5.115 -0.1160  0.0985  0.0656
 2086DLPE   C1B23705   3.784  14.865   3.961  0.0626  0.0464  0.1817
 2086DLPE   D2B23706   3.912  14.871   4.455 -0.2242 -0.1046 -0.1070
 2086DLPE   D3B23707   3.867  14.751   4.801 -0.1468 -0.0408 -0.1536
 2086DLPE   C4B23708   3.803  14.341   4.942  0.2298 -0.1413 -0.0738
 2087DLPE   NH323709  14.456  11.403   3.197 -0.0140 -0.3663 -0.2327
 2087DLPE   PO423710  14.439  11.684   3.390 -0.2740  0.1841  0.0075
 2087DLPE   GL123711  14.372  11.386   3.704  0.0314 -0.3427 -0.3773
 2087DLPE   GL223712  14.456  11.700   3.813  0.0010 -0.3168  0.1011
 2087DLPE   C1A23713  14.225  11.355   4.125  0.1617  0.2687 -0.2439
 2087DLPE   D2A23714  14.133  11.303   4.659  0.0707 -0.0636 -0.0764
 2087DLPE   D3A23715  14.219  11.446   5.068 -0.0447 -0.1595 -0.0281
 2087DLPE   C4A23716  13.785  11.554   5.050  0.0511 -0.0177  0.3182
 2087DLPE   C1B23717  14.844  11.954   3.957  0.1380  0.1960  0.1011
 2087DLPE   D2B23718  14.859  12.309   4.302  0.1468 -0.1808 -0.0317
 2087DLPE   D3B23719  14.977  12.158   4.717 -0.1112 -0.0299 -0.0139
 2087DLPE   C4B23720  15.177  12.014   4.992 -0.0034  0.0669 -0.0041
 2088DLPE   NH323721  22.117  26.573   3.338  0.3534 -0.0434  0.0303
 2088DLPE   PO423722  22.398  26.568   3.506 -0.1221  0.2263 -0.4645
 2088DLPE   GL123723  22.185  26.702   3.915  0.1309 -0.0704  0.2360
 2088DLPE   GL223724  22.054  26.908   3.730 -0.0899  0.0614  0.1074
 2088DLPE   C1A23725  22.224  26.739   4.365  0.1035 -0.2079  0.2141
 2088DLPE   D2A23726  22.328  26.798   4.849 -0.0565  0.2998  0.1976
 2088DLPE   D3A23727  22.021  27.113   4.946 -0.1233  0.0654 -0.0420
 2088DLPE   C4A23728  21.937  27.164   5.409  0.1937 -0.0310 -0.0065
 2088DLPE   C1B23729  21.934  27.241   3.946 -0.3203  0.0383  0.3076
 2088DLPE   D2B23730  21.779  27.591   4.107 -0.2827 -0.0299  0.0145
 2088DLPE   D3B23731  21.353  27.350   4.162 -0.1949  0.0139  0.1300
 2088DLPE   C4B23732  21.238  27.456   4.593 -0.4190  0.3087  0.4451
 2089DLPE   NH323733  24.306  13.963   3.445 -0.1007  0.2697  0.0663
 2089DLPE   PO423734  24.387  14.221   3.637  0.0122 -0.2351 -0.2090
 2089DLPE   GL123735  24.322  14.343   4.096 -0.1013  0.0977  0.1254
 2089DLPE   GL223736  24.137  14.077   4.011  0.4108 -0.0239  0.2481
 2089DLPE   C1A23737  24.253  14.742   4.352  0.0123 -0.0681 -0.0139
 2089DLPE   D2A23738  24.089  15.171   4.574 -0.1191 -0.0686 -0.0015
 2089DLPE   D3A23739  24.425  15.323   4.687  0.0016 -0.2535 -0.0368
 2089DLPE   C4A23740  24.448  15.154   4.205  0.1485 -0.1777 -0.1002
 2089DLPE   C1B23741  23.736  14.178   4.133 -0.0269 -0.0029 -0.0897
 2089DLPE   D2B23742  23.923  14.340   4.482  0.0684  0.0054 -0.0270
 2089DLPE   D3B23743  23.591  14.063   4.677 -0.0931 -0.0578  0.0344
 2089DLPE   C4B23744  23.551  13.917   5.122  0.0941  0.0578  0.0593
 2090DLPE   NH323745  17.740  22.418   3.357  0.0807  0.0794 -0.0306
 2090DLPE   PO423746  17.768  22.251   3.650 -0.1708  0.2606  0.0391
 2090DLPE   GL123747  17.710  22.432   3.971  0.2582 -0.2439 -0.2159
 2090DLPE   GL223748  17.810  22.709   3.836  0.0174 -0.2694  0.2060
 2090DLPE   C1A23749  17.777  22.498   4.432 -0.1043  0.0088 -0.0345
 2090DLPE   D2A23750  18.193  22.540   4.733 -0.1145  0.0146  0.1937
 2090DLPE   D3A23751  18.065  22.557   5.167  0.0167 -0.1801  0.1318
 2090DLPE   C4A23752  18.045  22.857   5.583  0.1764  0.1028 -0.0280
 2090DLPE   C1B23753  17.956  22.874   4.208  0.2588  0.1798 -0.0999
 2090DLPE   D2B23754  17.910  22.959   4.672  0.0997  0.0273 -0.0234
 2090DLPE   D3B23755  18.334  23.004   4.602  0.3645  0.1054  0.2119
 2090DLPE   C4B23756  18.208  23.037   5.044 -0.0590 -0.1125 -0.0942
 2091DLPE   NH323757  14.014  21.404   3.445 -0.2719  0.2013  0.1341
 2091DLPE   PO423758  14.106  21.692   3.586  0.2215  0.2727 -0.1536
 2091DLPE   GL123759  13.956  21.987   3.821  0.4108 -0.2051  0.0897
 2091DLPE   GL223760  14.018  21.802   4.058  0.1560 -0.2378 -0.4184
 2091DLPE   C1A23761  14.063  22.331   4.090  0.1501 -0.1913 -0.5302
 2091DLPE   D2A23762  14.014  22.824   4.289 -0.0903  0.2076 -0.0495
 2091DLPE   D3A23763  13.667  22.738   4.531  0.2632 -0.0584  0.3063
 2091DLPE   C4A23764  13.557  23.024   4.901  0.0629  0.2031 -0.0275
 2091DLPE   C1B23765  14.350  21.877   4.382 -0.2563  0.0304 -0.1016
 2091DLPE   D2B23766  14.491  21.987   4.779  0.0852 -0.1736  0.2776
 2091DLPE   D3B23767  14.384  21.821   5.139 -0.2440  0.0504 -0.0988
 2091DLPE   C4B23768  14.808  22.035   5.217 -0.2941 -0.0417 -0.4051
 2092DLPE   NH323769   8.957  14.057   3.018 -0.2308 -0.0519  0.0250
 2092DLPE   PO423770   9.104  13.749   3.097  0.1874  0.1943 -0.0642
 2092DLPE   GL123771   8.962  13.561   3.494 -0.0101  0.2307 -0.0192
 2092DLPE   GL223772   8.807  13.828   3.475  0.1711 -0.3290  0.2414
 2092DLPE   C1A23773   9.084  13.403   3.896  0.1693  0.4352 -0.3519
 2092DLPE   D2A23774   9.294  12.977   4.000 -0.1259 -0.1987  0.4046
 2092DLPE   D3A23775   9.581  12.924   4.320 -0.2389  0.1067 -0.4480
 2092DLPE   C4A23776   9.357  13.094   4.688 -0.0834 -0.1387 -0.0509
 2092DLPE   C1B23777   8.414  13.776   3.727  0.4618 -0.0407  0.3210
 2092DLPE   D2B23778   7.966  13.904   3.682 -0.1026 -0.0755 -0.1917
 2092DLPE   D3B23779   7.976  13.942   4.131 -0.4459 -0.2427  0.1106
 2092DLPE   C4B23780   8.106  14.074   4.504 -0.1375  0.2320  0.2064
 2093DLPE   NH323781  22.827  27.256   3.172  0.2346  0.2291  0.1454
 2093DLPE   PO423782  23.146  27.220   3.211  0.1237 -0.1030 -0.1994
 2093DLPE   GL123783  23.183  27.296   3.660  0.3924  0.5661  0.5796
 2093DLPE   GL223784  22.978  27.581   3.628 -0.1148 -0.2284 -0.3770
 2093DLPE   C1A23785  23.256  27.018   3.950 -0.0141  0.0537 -0.0245
 2093DLPE   D2A23786  23.065  26.712   4.237  0.0824 -0.2405  0.2466
 2093DLPE   D3A23787  23.066  27.108   4.464 -0.0997 -0.2161  0.3307
 2093DLPE   C4A23788  22.858  27.359   4.821  0.1365  0.0819  0.1334
 2093DLPE   C1B23789  22.844  27.309   4.015 -0.2372 -0.2729  0.1075
 2093DLPE   D2B23790  22.575  27.080   4.372 -0.1795 -0.2226 -0.1928
 2093DLPE   D3B23791  22.183  27.270   4.424 -0.1253 -0.0714  0.1221
 2093DLPE   C4B23792  21.865  27.498   4.642  0.3591 -0.0488 -0.2001
 2094DLPE   NH323793  25.928  20.714   2.576 -0.0223 -0.1077  0.1762
 2094DLPE   PO423794  25.710  20.858   2.848  0.1201  0.0215 -0.1135
 2094DLPE   GL123795  25.900  20.848   3.312 -0.1552 -0.0684  0.1309
 2094DLPE   GL223796  26.020  21.130   3.205  0.0356  0.1967  0.2764
 2094DLPE   C1A23797  25.873  20.781   3.690 -0.2161  0.0006  0.1108
 2094DLPE   D2A23798  26.118  20.565   4.052 -0.0860 -0.2953  0.0649
 2094DLPE   D3A23799  25.942  20.278   4.324  0.1043  0.1648  0.1343
 2094DLPE   C4A23800  25.716  19.990   4.618  0.0092 -0.0989  0.2394
 2094DLPE   C1B23801  26.051  21.285   3.618  0.3419  0.1038 -0.1798
 2094DLPE   D2B23802  26.291  21.047   4.022 -0.0796  0.3803  0.1063
 2094DLPE   D3B23803  25.831  21.060   4.179  0.1005 -0.0692  0.1759
 2094DLPE   C4B23804  25.529  21.094   3.856  0.3204  0.1247 -0.3097
 2095DLPE   NH323805  24.117  19.643   3.032  0.2294 -0.1485  0.0786
 2095DLPE   PO423806  23.873  19.845   3.218  0.2050 -0.1949 -0.0647
 2095DLPE   GL123807  23.777  19.891   3.690  0.0392 -0.0971 -0.1260
 2095DLPE   GL223808  23.470  19.667   3.722 -0.2455 -0.3918  0.2492
 2095DLPE   C1A23809  24.117  19.762   4.013  0.1482  0.2049 -0.0940
 2095DLPE   D2A23810  24.471  19.658   4.355  0.0659  0.3708 -0.0096
 2095DLPE   D3A23811  24.757  19.418   4.498  0.1977 -0.3224 -0.3285
 2095DLPE   C4A23812  24.799  18.925   4.471  0.2001 -0.0337  0.0432
 2095DLPE   C1B23813  23.686  19.483   4.025  0.1538 -0.0170  0.0511
 2095DLPE   D2B23814  23.977  19.526   4.433  0.1465  0.0248  0.1413
 2095DLPE   D3B23815  23.983  19.445   4.843  0.1738  0.1861 -0.4385
 2095DLPE   C4B23816  24.127  19.199   5.198  0.1321  0.0065  0.2006
 2096DLPE   NH323817  22.603  19.174   3.230  0.0462 -0.0295  0.3083
 2096DLPE   PO423818  22.870  19.398   3.275 -0.1229 -0.1658 -0.1065
 2096DLPE   GL123819  22.965  19.315   3.703  0.2397  0.0531  0.0039
 2096DLPE   GL223820  22.738  19.115   3.680 -0.3080 -0.0706 -0.5325
 2096DLPE   C1A23821  23.126  19.556   4.000  0.2126  0.1831 -0.0980
 2096DLPE   D2A23822  23.413  19.517   4.422  0.1721 -0.2337 -0.1175
 2096DLPE   D3A23823  23.504  19.275   4.792  0.0453  0.0856  0.1060
 2096DLPE   C4A23824  23.179  19.084   5.147  0.3180 -0.2449 -0.5010
 2096DLPE   C1B23825  22.902  18.728   3.852  0.1211 -0.1839  0.4612
 2096DLPE   D2B23826  23.258  18.429   3.737 -0.1007  0.3537 -0.2695
 2096DLPE   D3B23827  23.254  18.016   3.538 -0.0812 -0.1045  0.2165
 2096DLPE   C4B23828  22.946  17.765   3.701  0.0484 -0.1374  0.0105
 2097DLPE   NH323829   9.665  22.992   3.212  0.0359  0.1844  0.0218
 2097DLPE   PO423830   9.493  22.683   3.193  0.1105  0.1312  0.0095
 2097DLPE   GL123831   9.429  22.653   3.621  0.1850  0.1322 -0.1509
 2097DLPE   GL223832   9.189  22.785   3.589  0.1875  0.1127 -0.1723
 2097DLPE   C1A23833   9.289  22.711   4.046  0.0058 -0.1070  0.0317
 2097DLPE   D2A23834   9.021  22.255   4.235  0.4794 -0.2074  0.1066
 2097DLPE   D3A23835   9.229  21.814   4.142  0.0986  0.1339  0.3478
 2097DLPE   C4A23836   8.996  21.461   4.374 -0.0327  0.1218  0.2573
 2097DLPE   C1B23837   9.410  23.101   3.816 -0.0930  0.3080 -0.1208
 2097DLPE   D2B23838   9.824  23.237   4.029 -0.1050 -0.0590  0.2939
 2097DLPE   D3B23839   9.960  23.162   4.450  0.1322 -0.0498 -0.1309
 2097DLPE   C4B23840  10.118  23.316   4.827 -0.0563  0.1080 -0.2085
 2098DLPE   NH323841  18.435  24.780   3.790 -0.0058 -0.4853  0.0913
 2098DLPE   PO423842  18.329  24.541   3.629  0.1103 -0.2764 -0.3997
 2098DLPE   GL123843  18.358  24.282   3.921  0.3780  0.1463 -0.3527
 2098DLPE   GL223844  18.101  24.220   3.976  0.2752  0.0690 -0.4148
 2098DLPE   C1A23845  18.551  24.307   4.308  0.1108 -0.0627  0.0300
 2098DLPE   D2A23846  18.338  24.398   4.759 -0.2199  0.2228 -0.3130
 2098DLPE   D3A23847  18.102  24.597   5.108 -0.3482 -0.3040 -0.2094
 2098DLPE   C4A23848  17.604  24.545   5.271 -0.0163 -0.0044 -0.1433
 2098DLPE   C1B23849  17.789  24.174   4.288  0.0595  0.0230 -0.0666
 2098DLPE   D2B23850  17.269  24.083   4.337  0.2654  0.1502  0.1653
 2098DLPE   D3B23851  17.246  24.179   4.778 -0.3967 -0.3550 -0.1318
 2098DLPE   C4B23852  17.350  24.104   5.208  0.0312  0.3166  0.3470
 2099DLPE   NH323853  22.523  16.294   2.525  0.0082 -0.1518  0.0289
 2099DLPE   PO423854  22.265  16.439   2.690 -0.1083  0.3299 -0.0094
 2099DLPE   GL123855  22.482  16.358   3.090  0.1271 -0.0949 -0.4540
 2099DLPE   GL223856  22.199  16.310   3.098  0.1241 -0.1558 -0.0453
 2099DLPE   C1A23857  22.605  16.620   3.399  0.0257  0.4195  0.0778
 2099DLPE   D2A23858  22.979  16.866   3.590  0.1055 -0.0169 -0.0855
 2099DLPE   D3A23859  23.107  16.790   4.070  0.2490  0.0680  0.0199
 2099DLPE   C4A23860  22.750  16.565   4.330 -0.0939  0.0848 -0.2444
 2099DLPE   C1B23861  22.154  16.373   3.570  0.2283  0.0452  0.0232
 2099DLPE   D2B23862  22.252  16.538   4.142  0.5368  0.2866  0.2229
 2099DLPE   D3B23863  22.258  16.525   4.595 -0.0291 -0.0317 -0.2182
 2099DLPE   C4B23864  22.460  16.794   5.009  0.5920  0.0990  0.2150
 2100DLPE   NH323865  21.991  19.672   3.397  0.0980 -0.0059  0.1640
 2100DLPE   PO423866  22.091  19.367   3.256 -0.0687  0.2183  0.0821
 2100DLPE   GL123867  22.130  19.026   3.457  0.0613  0.1767  0.1147
 2100DLPE   GL223868  22.350  19.127   3.593  0.2734  0.0813  0.1028
 2100DLPE   C1A23869  21.975  18.847   3.872 -0.1163 -0.1964 -0.0631
 2100DLPE   D2A23870  22.285  18.663   4.247  0.2415 -0.1758 -0.0853
 2100DLPE   D3A23871  22.716  18.659   4.281 -0.3354  0.1255  0.1096
 2100DLPE   C4A23872  22.771  18.862   4.727  0.1507 -0.1565  0.4226
 2100DLPE   C1B23873  22.392  19.083   4.014 -0.0528  0.1517 -0.1526
 2100DLPE   D2B23874  22.835  19.140   4.145 -0.1771 -0.4938 -0.0951
 2100DLPE   D3B23875  23.031  19.229   4.542  0.4751  0.0667  0.0158
 2100DLPE   C4B23876  23.025  19.597   4.849  0.1209  0.0058 -0.1658
 2101DLPE   NH323877  24.906  27.565   3.262  0.1267  0.0831  0.1014
 2101DLPE   PO423878  24.640  27.791   3.194  0.0079 -0.1735 -0.1859
 2101DLPE   GL123879  24.724  27.732   3.657 -0.2295  0.1134 -0.0874
 2101DLPE   GL223880  24.870  27.838   3.739 -0.0852  0.3159 -0.0104
 2101DLPE   C1A23881  24.522  27.824   4.068  0.2086 -0.0346 -0.0477
 2101DLPE   D2A23882  24.422  27.717   4.560  0.1899  0.1326 -0.0640
 2101DLPE   D3A23883  24.671  27.678   4.949 -0.0369 -0.0473  0.1694
 2101DLPE   C4A23884  24.403  27.834   5.304 -0.2150  0.1171 -0.3387
 2101DLPE   C1B23885  25.113  27.758   4.150 -0.0362  0.3468 -0.1714
 2101DLPE   D2B23886  25.212  27.570   4.588 -0.2087  0.1535 -0.3236
 2101DLPE   D3B23887  25.240  27.440   4.982  0.1879 -0.1370  0.0838
 2101DLPE   C4B23888  25.474  27.716   5.224 -0.0176 -0.2254 -0.0075
 2102DLPE   NH323889  22.910  23.957   3.418  0.6872 -0.0107 -0.2085
 2102DLPE   PO423890  22.991  23.644   3.483  0.0589  0.3705  0.3410
 2102DLPE   GL123891  23.248  23.738   3.783 -0.1780 -0.3684  0.0816
 2102DLPE   GL223892  23.513  23.848   3.860  0.0122 -0.2164 -0.1087
 2102DLPE   C1A23893  22.992  23.765   4.117  0.0182  0.3053  0.2948
 2102DLPE   D2A23894  22.894  24.158   4.410  0.0772 -0.1522  0.3798
 2102DLPE   D3A23895  22.772  24.176   4.814  0.1658  0.1380 -0.0429
 2102DLPE   C4A23896  22.440  24.449   5.012 -0.0124  0.1837  0.4441
 2102DLPE   C1B23897  23.447  23.674   4.263 -0.4142 -0.2902 -0.1146
 2102DLPE   D2B23898  23.118  23.796   4.661  0.1128  0.1029 -0.0768
 2102DLPE   D3B23899  22.667  23.699   4.718  0.0790  0.0089  0.0869
 2102DLPE   C4B23900  22.379  23.384   5.016 -0.4240  0.1798  0.3000
 2103DLPE   NH323901   5.934  24.723   3.566  0.2490 -0.2890  0.6529
 2103DLPE   PO423902   5.855  24.490   3.821 -0.1408 -0.2018 -0.0922
 2103DLPE   GL123903   5.668  24.599   4.190 -0.1145 -0.4016  0.0889
 2103DLPE   GL223904   5.644  24.290   4.222 -0.1018  0.3734 -0.2356
 2103DLPE   C1A23905   5.678  24.819   4.631  0.3583 -0.2019 -0.0331
 2103DLPE   D2A23906   5.521  25.078   5.008 -0.0473  0.0294 -0.0626
 2103DLPE   D3A23907   5.360  24.840   5.345 -0.1807 -0.2778 -0.0398
 2103DLPE   C4A23908   5.485  24.489   5.659  0.1226  0.3449  0.0194
 2103DLPE   C1B23909   5.850  24.352   4.567 -0.0177 -0.1915 -0.2071
 2103DLPE   D2B23910   5.660  24.538   5.036 -0.1399 -0.0463  0.0787
 2103DLPE   D3B23911   5.849  24.888   5.322  0.0296  0.0807  0.0523
 2103DLPE   C4B23912   5.721  25.123   5.705 -0.1082 -0.0963  0.0447
 2104DLPE   NH323913  25.415  15.086   3.599 -0.3833  0.0287  0.1171
 2104DLPE   PO423914  25.722  15.009   3.487 -0.3174 -0.0761  0.1228
 2104DLPE   GL123915  25.703  14.799   3.860  0.4578 -0.2574 -0.1874
 2104DLPE   GL223916  25.995  14.722   3.776  0.1869  0.1781  0.0290
 2104DLPE   C1A23917  25.756  14.817   4.287 -0.3608  0.2945 -0.1702
 2104DLPE   D2A23918  25.744  14.501   4.695  0.0444  0.1369  0.3948
 2104DLPE   D3A23919  25.851  14.743   5.078 -0.0434  0.1095 -0.0604
 2104DLPE   C4A23920  25.399  14.789   4.867 -0.2846 -0.2989  0.0378
 2104DLPE   C1B23921  26.136  14.537   4.099 -0.1316 -0.1743 -0.3482
 2104DLPE   D2B23922  26.431  14.222   4.406  0.0627 -0.0237  0.0436
 2104DLPE   D3B23923  26.378  13.874   4.741 -0.5353 -0.1392 -0.1658
 2104DLPE   C4B23924  26.070  13.547   4.901 -0.1726  0.2192  0.0053
 2105DLPE   NH323925  24.163  10.125   3.152 -0.1526  0.2299 -0.0196
 2105DLPE   PO423926  24.529  10.052   3.279  0.1724 -0.2223 -0.1426
 2105DLPE   GL123927  24.340  10.001   3.610  0.3797  0.0687  0.3368
 2105DLPE   GL223928  24.590  10.030   3.808 -0.0204  0.0146  0.0106
 2105DLPE   C1A23929  24.145  10.118   3.960 -0.0154  0.0716 -0.1927
 2105DLPE   D2A23930  24.021  10.202   4.449  0.2159 -0.1161  0.3235
 2105DLPE   D3A23931  24.110  10.601   4.674 -0.0066  0.1933 -0.4303
 2105DLPE   C4A23932  24.198  10.320   5.089  0.0060  0.2820 -0.2546
 2105DLPE   C1B23933  24.571   9.862   4.245  0.0026  0.1932 -0.0535
 2105DLPE   D2B23934  24.888   9.676   4.630 -0.0878  0.0116  0.3917
 2105DLPE   D3B23935  24.905   9.330   4.779  0.0373  0.3961 -0.0834
 2105DLPE   C4B23936  25.001   9.275   5.243 -0.0332 -0.0525  0.0122
 2106DLPE   NH323937  22.960  24.465   3.332  0.2569 -0.2075 -0.1128
 2106DLPE   PO423938  22.591  24.401   3.402 -0.1890 -0.1343 -0.0504
 2106DLPE   GL123939  22.693  24.526   3.825  0.1920  0.0546 -0.3928
 2106DLPE   GL223940  22.980  24.422   3.917  0.1815  0.5529  0.3375
 2106DLPE   C1A23941  22.506  24.466   4.265 -0.0715 -0.3547 -0.2534
 2106DLPE   D2A23942  22.156  24.663   4.632  0.0012  0.1392  0.1659
 2106DLPE   D3A23943  21.862  24.439   4.821  0.1824 -0.0473  0.2526
 2106DLPE   C4A23944  21.360  24.331   4.728  0.0015  0.0590 -0.0563
 2106DLPE   C1B23945  22.976  24.653   4.272  0.1914  0.3004  0.2168
 2106DLPE   D2B23946  23.391  24.758   4.453  0.2505 -0.2095  0.2304
 2106DLPE   D3B23947  23.741  25.001   4.708  0.0054  0.0951  0.1817
 2106DLPE   C4B23948  23.837  24.890   5.146  0.2410 -0.0650  0.3391
 2107DLPE   NH323949  21.183  26.121   3.114  0.1618  0.0849  0.1489
 2107DLPE   PO423950  20.971  25.857   3.133 -0.2336 -0.0814 -0.3202
 2107DLPE   GL123951  21.145  25.676   3.490 -0.0185  0.1267  0.3645
 2107DLPE   GL223952  21.124  25.916   3.621  0.2150 -0.1661  0.0586
 2107DLPE   C1A23953  20.939  25.480   3.755  0.2108  0.1365 -0.3447
 2107DLPE   D2A23954  20.947  25.440   4.218  0.2379  0.1011  0.1811
 2107DLPE   D3A23955  21.371  25.224   4.252 -0.2974 -0.1057  0.1670
 2107DLPE   C4A23956  21.782  25.463   4.213  0.0256  0.1797 -0.3774
 2107DLPE   C1B23957  20.910  25.904   4.061 -0.0058 -0.0271  0.0341
 2107DLPE   D2B23958  20.916  26.199   4.444  0.3918 -0.1086  0.0226
 2107DLPE   D3B23959  20.528  26.019   4.332 -0.2579  0.3302  0.0686
 2107DLPE   C4B23960  20.166  26.315   4.293 -0.1112 -0.2076  0.4802
 2108DLPE   NH323961   8.354   3.675   3.048  0.2110  0.2989  0.0387
 2108DLPE   PO423962   8.466   3.477   3.309 -0.3197 -0.1930  0.2717
 2108DLPE   GL123963   8.072   3.430   3.462 -0.1680 -0.1433 -0.0642
 2108DLPE   GL223964   8.166   3.740   3.621  0.1237  0.0672 -0.0088
 2108DLPE   C1A23965   7.805   3.182   3.586  0.1426 -0.0650  0.1269
 2108DLPE   D2A23966   7.582   2.870   3.873 -0.0760  0.1476 -0.0142
 2108DLPE   D3A23967   7.308   2.613   3.754 -0.0743 -0.0488 -0.2663
 2108DLPE   C4A23968   7.108   2.221   4.005  0.2883  0.0722  0.0056
 2108DLPE   C1B23969   8.157   3.521   3.937 -0.1066  0.0338 -0.0511
 2108DLPE   D2B23970   8.272   3.601   4.448  0.1058 -0.1767  0.1614
 2108DLPE   D3B23971   8.651   3.578   4.634 -0.0082 -0.0578  0.0543
 2108DLPE   C4B23972   8.919   3.758   4.948  0.1232  0.2954 -0.1328
 2109DLPE   NH323973  22.523  21.114   3.422 -0.3253 -0.3550 -0.1427
 2109DLPE   PO423974  22.284  21.366   3.591 -0.2084 -0.1383  0.1825
 2109DLPE   GL123975  22.052  21.291   3.937  0.1427 -0.2933  0.0017
 2109DLPE   GL223976  22.289  21.410   4.098  0.1008  0.0720 -0.0081
 2109DLPE   C1A23977  21.981  21.216   4.384 -0.0065  0.2688  0.1539
 2109DLPE   D2A23978  21.654  21.471   4.633 -0.1668  0.4173 -0.2770
 2109DLPE   D3A23979  21.665  21.906   4.646  0.0882  0.2907 -0.5318
 2109DLPE   C4A23980  21.974  22.057   4.955 -0.0224  0.0256  0.3806
 2109DLPE   C1B23981  22.510  21.315   4.451  0.1771  0.6474 -0.2405
 2109DLPE   D2B23982  22.867  20.999   4.494 -0.4317 -0.5977 -0.3289
 2109DLPE   D3B23983  22.985  20.975   4.940 -0.3189 -0.0143 -0.2068
 2109DLPE   C4B23984  23.262  20.679   5.229  0.1473  0.0429 -0.2313
 2110DLPE   NH323985  18.142  11.324   2.891 -0.2706  0.0775  0.0116
 2110DLPE   PO423986  18.085  11.457   3.222  0.2189  0.2522  0.1880
 2110DLPE   GL123987  18.178  11.247   3.621  0.3660 -0.2141 -0.1131
 2110DLPE   GL223988  17.995  11.482   3.710  0.1943  0.2727  0.0757
 2110DLPE   C1A23989  18.240  10.997   3.975  0.0193  0.0882  0.2955
 2110DLPE   D2A23990  18.578  11.162   4.355 -0.0276  0.0898 -0.1888
 2110DLPE   D3A23991  18.275  11.090   4.708 -0.1185 -0.2279 -0.4747
 2110DLPE   C4A23992  18.367  11.453   5.065  0.1032 -0.0411  0.0300
 2110DLPE   C1B23993  17.683  11.314   3.869  0.0116 -0.2338  0.1728
 2110DLPE   D2B23994  17.247  11.234   4.137  0.0009  0.1251 -0.1072
 2110DLPE   D3B23995  17.480  11.545   4.500 -0.0071  0.0101 -0.0050
 2110DLPE   C4B23996  17.577  11.979   4.633  0.3415  0.0172  0.0031
 2111DLPE   NH323997  13.524  24.047   3.359 -0.0526  0.1176  0.3935
 2111DLPE   PO423998  13.300  23.782   3.448 -0.3692 -0.1292 -0.3332
 2111DLPE   GL123999  13.302  23.826   3.864  0.0127  0.2096  0.2448
 2111DLPE   GL224000  13.604  23.863   3.835 -0.0509  0.3704  0.1472
 2111DLPE   C1A24001  13.280  24.062   4.229  0.0822 -0.0011  0.0995
 2111DLPE   D2A24002  13.586  24.201   4.578 -0.2713 -0.4155 -0.0753
 2111DLPE   D3A24003  13.970  24.093   4.542  0.1733 -0.3505 -0.0397
 2111DLPE   C4A24004  14.194  23.691   4.520  0.3150 -0.0677  0.3066
 2111DLPE   C1B24005  13.721  23.723   4.241  0.0945 -0.0682 -0.2154
 2111DLPE   D2B24006  13.748  23.740   4.776 -0.2106  0.1572 -0.0143
 2111DLPE   D3B24007  13.740  23.995   5.129 -0.2278 -0.2944 -0.0880
 2111DLPE   C4B24008  13.572  24.113   5.586 -0.0446  0.0596 -0.2507
 2112DLPE   NH324009  14.853  12.198   2.956 -0.1425 -0.0418  0.0002
 2112DLPE   PO424010  15.160  12.131   3.036 -0.2732 -0.1281  0.0072
 2112DLPE   GL124011  15.176  11.977   3.404  0.2547 -0.2228 -0.5401
 2112DLPE   GL224012  15.362  11.822   3.440 -0.0462 -0.4502 -0.0338
 2112DLPE   C1A24013  15.129  12.284   3.727  0.2024 -0.3642  0.2371
 2112DLPE   D2A24014  15.040  12.688   4.019 -0.4265 -0.1238  0.0259
 2112DLPE   D3A24015  14.755  12.900   4.279  0.0042 -0.0269  0.3464
 2112DLPE   C4A24016  14.783  13.413   4.405 -0.0623  0.1611 -0.0402
 2112DLPE   C1B24017  15.196  11.634   3.842 -0.0239 -0.0577 -0.0853
 2112DLPE   D2B24018  15.085  11.650   4.337  0.1776  0.0767  0.0892
 2112DLPE   D3B24019  15.280  12.091   4.351  0.0559  0.0903  0.1008
 2112DLPE   C4B24020  15.612  12.186   4.733 -0.0660  0.0800  0.0864
 2113DLPE   NH324021  13.567   6.947   3.579  0.0451  0.0539 -0.3027
 2113DLPE   PO424022  13.478   7.285   3.508  0.1844 -0.4789 -0.4696
 2113DLPE   GL124023  13.394   7.275   3.917  0.1742  0.0489  0.1070
 2113DLPE   GL224024  13.696   7.140   4.026 -0.1325 -0.3101 -0.1001
 2113DLPE   C1A24025  13.100   7.168   4.263 -0.3693  0.0296 -0.1785
 2113DLPE   D2A24026  13.170   7.224   4.697  0.2372  0.0389  0.1291
 2113DLPE   D3A24027  13.366   7.052   5.051  0.3727 -0.0890  0.1614
 2113DLPE   C4A24028  13.315   7.016   5.496 -0.0372  0.0501 -0.0420
 2113DLPE   C1B24029  13.827   6.873   4.370  0.3215  0.1642  0.0310
 2113DLPE   D2B24030  13.367   6.773   4.567 -0.0380  0.0394  0.0779
 2113DLPE   D3B24031  13.208   6.388   4.583  0.2461 -0.1292 -0.2412
 2113DLPE   C4B24032  12.967   6.263   4.897  0.2279  0.0480 -0.2463
 2114DLPE   NH324033  26.304  23.149   2.985  0.0540 -0.0676 -0.1057
 2114DLPE   PO424034  26.096  23.407   3.104  0.1440 -0.0047 -0.2769
 2114DLPE   GL124035  25.881  23.405   3.526 -0.2176 -0.3554  0.1280
 2114DLPE   GL224036  26.125  23.508   3.587  0.3217  0.2560 -0.0098
 2114DLPE   C1A24037  25.814  23.119   3.867 -0.3155  0.1320 -0.2132
 2114DLPE   D2A24038  25.829  23.071   4.382  0.2535 -0.2022 -0.0063
 2114DLPE   D3A24039  25.543  22.934   4.607  0.0553 -0.0590 -0.0278
 2114DLPE   C4A24040  25.347  22.992   5.074  0.0832  0.1797 -0.1235
 2114DLPE   C1B24041  26.319  23.826   3.856  0.1611  0.0187 -0.1510
 2114DLPE   D2B24042  26.340  23.765   4.404  0.1456  0.1037  0.1538
 2114DLPE   D3B24043  26.743  23.972   4.485 -0.0136 -0.2386 -0.1410
 2114DLPE   C4B24044  27.175  24.030   4.572  0.2909 -0.0189 -0.1186
 2115DLPE   NH324045   6.862   4.782   2.888  0.1459 -0.1287 -0.0193
 2115DLPE   PO424046   6.617   4.827   3.083  0.0792 -0.1390  0.1633
 2115DLPE   GL124047   6.745   5.037   3.380  0.2122 -0.0940  0.0179
 2115DLPE   GL224048   7.016   5.200   3.308  0.1491  0.6155 -0.0138
 2115DLPE   C1A24049   6.832   4.818   3.793 -0.2893 -0.2232  0.3013
 2115DLPE   D2A24050   6.910   4.863   4.282  0.1173  0.1232  0.1705
 2115DLPE   D3A24051   7.283   4.846   4.438  0.0180  0.2645  0.0484
 2115DLPE   C4A24052   7.392   4.633   4.889 -0.1364  0.0514  0.0455
 2115DLPE   C1B24053   7.133   5.193   3.630  0.1093  0.0297 -0.2142
 2115DLPE   D2B24054   7.314   4.980   3.978 -0.1586 -0.1303 -0.1129
 2115DLPE   D3B24055   7.591   5.230   4.297  0.2802  0.1183  0.1944
 2115DLPE   C4B24056   7.484   5.198   4.789 -0.0569  0.0346 -0.0155
 2116DLPE   NH324057  16.851  18.854   3.598  0.0073  0.0431  0.0235
 2116DLPE   PO424058  16.786  18.610   3.824  0.1717  0.0887 -0.4127
 2116DLPE   GL124059  16.668  18.831   4.174  0.4135 -0.2227  0.2455
 2116DLPE   GL224060  16.670  19.071   3.952  0.2100  0.0327 -0.4389
 2116DLPE   C1A24061  16.285  18.661   4.284  0.1254  0.2438  0.1149
 2116DLPE   D2A24062  16.295  18.610   4.752 -0.0445 -0.0058  0.1512
 2116DLPE   D3A24063  16.145  18.615   5.168  0.0188  0.0688  0.1814
 2116DLPE   C4A24064  15.953  18.223   5.402  0.1540  0.4333  0.0031
 2116DLPE   C1B24065  16.779  19.471   4.240 -0.1948 -0.4491  0.0965
 2116DLPE   D2B24066  16.998  19.945   4.418 -0.3018 -0.1437  0.0612
 2116DLPE   D3B24067  17.308  20.245   4.583  0.0010  0.3590 -0.0818
 2116DLPE   C4B24068  17.819  20.208   4.570  0.2317  0.4321  0.2348
 2117DLPE   NH324069   5.864   6.393   2.964  0.2441 -0.0985  0.1779
 2117DLPE   PO424070   6.037   6.131   3.160 -0.0216 -0.1523 -0.2778
 2117DLPE   GL124071   6.003   6.209   3.563 -0.1161  0.4099  0.0596
 2117DLPE   GL224072   5.666   6.136   3.560 -0.4550  0.0775 -0.1805
 2117DLPE   C1A24073   6.170   6.150   3.949 -0.0289 -0.0220  0.0269
 2117DLPE   D2A24074   6.016   6.003   4.420 -0.0575 -0.0016 -0.2971
 2117DLPE   D3A24075   6.162   5.960   4.853 -0.0783 -0.2791 -0.0105
 2117DLPE   C4A24076   6.365   5.542   4.844  0.0046  0.1439 -0.0869
 2117DLPE   C1B24077   5.459   5.940   3.893 -0.0087  0.1996  0.0034
 2117DLPE   D2B24078   5.217   5.918   4.357 -0.0772  0.1343 -0.1142
 2117DLPE   D3B24079   4.977   5.583   4.624  0.3336  0.2175 -0.2049
 2117DLPE   C4B24080   5.371   5.356   4.723  0.1921 -0.0411  0.1154
 2118DLPE   NH324081  26.088  15.709   3.420 -0.2954  0.0080  0.0820
 2118DLPE   PO424082  26.438  15.693   3.452 -0.0343 -0.1632  0.1421
 2118DLPE   GL124083  26.298  15.682   3.942 -0.2226  0.1761  0.0675
 2118DLPE   GL224084  26.127  15.414   3.791  0.1868  0.0160  0.0632
 2118DLPE   C1A24085  26.374  15.693   4.380  0.0654 -0.0005  0.0190
 2118DLPE   D2A24086  26.322  15.866   4.835  0.2749 -0.1401 -0.0971
 2118DLPE   D3A24087  25.970  16.039   5.066 -0.2405 -0.2061  0.1280
 2118DLPE   C4A24088  26.283  16.386   5.176 -0.0741 -0.1721 -0.1474
 2118DLPE   C1B24089  25.860  15.247   4.101  0.0683  0.0783  0.1092
 2118DLPE   D2B24090  25.574  15.676   4.233  0.1169  0.1675 -0.2184
 2118DLPE   D3B24091  25.213  15.768   4.519 -0.0341 -0.4337  0.2097
 2118DLPE   C4B24092  25.081  15.831   4.976  0.0343  0.0187  0.0953
 2119DLPE   NH324093  11.514  15.545   3.539  0.0796 -0.0521  0.0452
 2119DLPE   PO424094  11.279  15.288   3.542  0.0739  0.1493 -0.3325
 2119DLPE   GL124095  10.987  15.260   3.884 -0.1445 -0.1239  0.0709
 2119DLPE   GL224096  10.978  14.954   3.860  0.1209 -0.4768  0.2257
 2119DLPE   C1A24097  11.007  15.545   4.222 -0.2504  0.1490  0.1298
 2119DLPE   D2A24098  10.784  15.887   4.480  0.1504  0.0645 -0.1525
 2119DLPE   D3A24099  10.476  15.745   4.763  0.2087  0.1406  0.2531
 2119DLPE   C4A24100  10.491  15.678   5.225 -0.2002  0.5495  0.1525
 2119DLPE   C1B24101  10.848  15.014   4.275 -0.1115 -0.1824 -0.1754
 2119DLPE   D2B24102  10.883  14.888   4.763  0.0733 -0.4168  0.0787
 2119DLPE   D3B24103  10.768  15.207   5.113  0.0326  0.1203  0.3118
 2119DLPE   C4B24104  10.841  15.002   5.437  0.0219 -0.0413 -0.1444
 2120DLPE   NH324105  19.608   5.840   3.085  0.1180 -0.2492  0.0194
 2120DLPE   PO424106  19.798   5.710   3.358 -0.0513 -0.3172 -0.1608
 2120DLPE   GL124107  19.819   5.672   3.752 -0.2618  0.2775 -0.0128
 2120DLPE   GL224108  19.928   5.947   3.715  0.0433 -0.2418 -0.4125
 2120DLPE   C1A24109  20.029   5.478   4.120 -0.0999 -0.2130  0.2301
 2120DLPE   D2A24110  20.045   5.275   4.529  0.2522 -0.1742  0.2249
 2120DLPE   D3A24111  19.585   5.147   4.347 -0.3717 -0.1735  0.2337
 2120DLPE   C4A24112  19.264   5.007   4.047  0.0624 -0.0364  0.2714
 2120DLPE   C1B24113  19.743   6.263   3.874  0.3278 -0.2454 -0.0849
 2120DLPE   D2B24114  19.433   6.294   4.235 -0.0774  0.1509 -0.0936
 2120DLPE   D3B24115  19.530   6.227   4.679 -0.0846  0.0994  0.0218
 2120DLPE   C4B24116  19.721   5.970   5.058  0.0954  0.0238  0.0535
 2121DLPE   NH324117   4.643  10.030   3.245 -0.1607 -0.0825  0.0779
 2121DLPE   PO424118   4.436  10.319   3.395 -0.1085 -0.2096  0.2101
 2121DLPE   GL124119   4.491  10.352   3.842 -0.0770 -0.0658 -0.2235
 2121DLPE   GL224120   4.469  10.661   3.745  0.2406 -0.0247 -0.2019
 2121DLPE   C1A24121   4.676  10.268   4.247 -0.0229 -0.1227 -0.4076
 2121DLPE   D2A24122   4.834   9.932   4.666  0.3102 -0.0431  0.3165
 2121DLPE   D3A24123   4.843  10.290   4.876  0.0684 -0.0214  0.0823
 2121DLPE   C4A24124   4.665  10.496   5.239 -0.0940 -0.0399  0.1040
 2121DLPE   C1B24125   4.124  10.614   4.033 -0.0646 -0.0739  0.0530
 2121DLPE   D2B24126   3.698  10.918   4.073  0.2958 -0.0923  0.0813
 2121DLPE   D3B24127   3.624  11.329   4.151  0.0218 -0.1612 -0.2362
 2121DLPE   C4B24128   3.248  11.617   4.028 -0.4167 -0.2619  0.1539
 2122DLPE   NH324129  26.458   2.154   3.586  0.1099  0.0889 -0.2023
 2122DLPE   PO424130  26.280   1.885   3.748  0.2011 -0.2021  0.4464
 2122DLPE   GL124131  26.150   1.779   4.131  0.4722 -0.2255  0.1742
 2122DLPE   GL224132  25.894   1.723   4.096  0.2076 -0.1342  0.4071
 2122DLPE   C1A24133  26.468   1.654   4.419  0.1532  0.1394  0.0608
 2122DLPE   D2A24134  26.734   1.680   4.852 -0.0226 -0.1454 -0.2309
 2122DLPE   D3A24135  26.574   1.273   4.882  0.0254 -0.1843 -0.1576
 2122DLPE   C4A24136  26.997   1.115   4.941 -0.1288  0.1611 -0.3175
 2122DLPE   C1B24137  25.932   1.435   4.402  0.1266 -0.1689 -0.2773
 2122DLPE   D2B24138  25.822   1.240   4.906 -0.0027  0.2465 -0.2740
 2122DLPE   D3B24139  25.386   1.109   4.975 -0.1720 -0.0605 -0.0075
 2122DLPE   C4B24140  25.279   1.532   5.180 -0.0531  0.4542 -0.0813
 2123DLPE   NH324141  11.169  22.018   3.452  0.0506 -0.4270 -0.0679
 2123DLPE   PO424142  11.057  21.704   3.430 -0.1338 -0.2594 -0.1276
 2123DLPE   GL124143  10.984  21.437   3.719  0.1978 -0.0561 -0.1014
 2123DLPE   GL224144  10.769  21.245   3.648 -0.1374  0.0556 -0.2585
 2123DLPE   C1A24145  11.266  21.302   4.025  0.1235 -0.3260  0.0175
 2123DLPE   D2A24146  11.296  21.128   4.504 -0.0282  0.1261 -0.1206
 2123DLPE   D3A24147  11.541  21.161   4.876 -0.1951 -0.1197  0.1517
 2123DLPE   C4A24148  11.215  21.504   5.085 -0.0649  0.1185 -0.0918
 2123DLPE   C1B24149  10.499  21.377   3.991 -0.0648  0.1927 -0.0883
 2123DLPE   D2B24150  10.068  21.276   4.045  0.2852  0.0457 -0.3709
 2123DLPE   D3B24151   9.673  21.146   4.047 -0.0391 -0.0304  0.1151
 2123DLPE   C4B24152   9.542  21.465   4.385  0.2130 -0.1518  0.1449
 2124DLPE   NH324153   0.657  22.967   3.158 -0.1102 -0.3647  0.0365
 2124DLPE   PO424154   0.442  22.681   3.172  0.1346 -0.1880  0.0697
 2124DLPE   GL124155   0.267  22.698   3.521  0.3005 -0.4828  0.0899
 2124DLPE   GL224156   0.019  22.863   3.388 -0.3118  0.0859  0.0816
 2124DLPE   C1A24157   0.276  22.619   3.941 -0.4100 -0.0590 -0.0148
 2124DLPE   D2A24158  -0.132  22.553   4.251 -0.0751  0.2248 -0.2390
 2124DLPE   D3A24159  -0.098  22.451   4.749  0.0684 -0.3035  0.1647
 2124DLPE   C4A24160   0.214  22.810   4.528 -0.1752 -0.1326 -0.0042
 2124DLPE   C1B24161  -0.284  22.881   3.667  0.0191  0.0400  0.0856
 2124DLPE   D2B24162  -0.574  22.798   4.042  0.0128  0.0476  0.2743
 2124DLPE   D3B24163  -0.567  22.449   4.357  0.1081  0.1690 -0.2270
 2124DLPE   C4B24164  -0.619  22.564   4.821  0.0538 -0.2301 -0.0573
 2125DLPE   NH324165  23.917  24.726   3.466  0.1412 -0.2911 -0.2289
 2125DLPE   PO424166  23.576  24.627   3.461 -0.3824  0.0829  0.0048
 2125DLPE   GL124167  23.701  24.795   3.893 -0.0663  0.0874  0.2789
 2125DLPE   GL224168  23.470  24.667   3.974  0.4555 -0.2413 -0.0248
 2125DLPE   C1A24169  23.861  24.693   4.296  0.0952  0.0796 -0.3916
 2125DLPE   D2A24170  24.150  24.296   4.396  0.1531 -0.1220  0.0868
 2125DLPE   D3A24171  24.358  24.206   4.750  0.0711  0.0349  0.3194
 2125DLPE   C4A24172  24.684  24.117   5.093 -0.0823 -0.1793 -0.0142
 2125DLPE   C1B24173  23.499  24.260   4.253  0.0337 -0.0031  0.1740
 2125DLPE   D2B24174  23.320  24.225   4.663  0.1080  0.0444 -0.1209
 2125DLPE   D3B24175  23.138  24.289   5.116  0.0291 -0.0505 -0.1823
 2125DLPE   C4B24176  22.722  24.244   5.369  0.2688  0.0002 -0.1410
 2126DLPE   NH324177  21.333  10.643   3.127  0.2558  0.0682 -0.0172
 2126DLPE   PO424178  21.267  10.288   3.138 -0.1228  0.0649  0.0913
 2126DLPE   GL124179  21.207  10.208   3.503  0.0299 -0.1670  0.2384
 2126DLPE   GL224180  21.345   9.999   3.664  0.0402  0.1542  0.0293
 2126DLPE   C1A24181  20.869  10.353   3.735  0.2481  0.0792 -0.0913
 2126DLPE   D2A24182  20.892  10.624   4.152 -0.1728 -0.0595 -0.1075
 2126DLPE   D3A24183  21.029  10.659   4.572  0.0815  0.3714  0.1350
 2126DLPE   C4A24184  21.193  10.318   4.882  0.0029  0.1928  0.0616
 2126DLPE   C1B24185  21.170  10.050   4.096  0.2424 -0.2078 -0.0196
 2126DLPE   D2B24186  21.448  10.402   4.356  0.1680  0.2618 -0.3686
 2126DLPE   D3B24187  21.354  10.898   4.314  0.2011 -0.2422  0.1594
 2126DLPE   C4B24188  21.481  11.299   4.083  0.1429 -0.0708  0.1141
 2127DLPE   NH324189   7.443  19.883   3.444  0.3443  0.2346  0.0631
 2127DLPE   PO424190   7.582  20.206   3.436  0.2086  0.1981  0.0282
 2127DLPE   GL124191   7.775  20.076   3.800  0.1069  0.1420  0.2306
 2127DLPE   GL224192   7.712  20.354   3.844  0.1807 -0.1708  0.0236
 2127DLPE   C1A24193   7.948  20.093   4.225  0.1499 -0.0191 -0.1588
 2127DLPE   D2A24194   8.027  20.297   4.647 -0.0899 -0.1973  0.0327
 2127DLPE   D3A24195   8.169  20.383   5.138  0.1559 -0.0608 -0.0157
 2127DLPE   C4A24196   8.196  20.025   5.432  0.1556 -0.2660 -0.1501
 2127DLPE   C1B24197   7.506  20.265   4.139  0.0542 -0.4819  0.3582
 2127DLPE   D2B24198   7.362  20.296   4.597  0.0389 -0.0265  0.0579
 2127DLPE   D3B24199   7.243  20.244   5.065  0.2570 -0.3544 -0.1397
 2127DLPE   C4B24200   7.469  20.476   5.421  0.0956  0.1644 -0.3894
 2128DLPE   NH324201   8.315   8.637   2.963  0.1200  0.2808 -0.2232
 2128DLPE   PO424202   8.109   8.684   3.290 -0.0916  0.1566  0.1287
 2128DLPE   GL124203   8.107   8.682   3.643 -0.1177  0.2458 -0.0081
 2128DLPE   GL224204   8.368   8.789   3.613 -0.1175  0.2149  0.1205
 2128DLPE   C1A24205   8.064   8.843   4.018 -0.0557  0.1595 -0.0992
 2128DLPE   D2A24206   8.113   9.021   4.428 -0.0883  0.0603  0.3291
 2128DLPE   D3A24207   8.328   8.667   4.601  0.1387  0.0759  0.1006
 2128DLPE   C4A24208   8.132   8.268   4.696 -0.1149 -0.0421 -0.0899
 2128DLPE   C1B24209   8.630   8.867   3.900  0.0520 -0.0645  0.1267
 2128DLPE   D2B24210   8.685   9.062   4.280  0.1961  0.1372  0.0622
 2128DLPE   D3B24211   8.852   8.728   4.562  0.0004  0.1445  0.0684
 2128DLPE   C4B24212   8.795   8.473   4.241  0.1580  0.3786  0.2596
 2129DLPE   NH324213   1.071  27.279   3.537 -0.0060 -0.0233  0.2164
 2129DLPE   PO424214   0.808  27.399   3.299 -0.3118  0.0324 -0.0486
 2129DLPE   GL124215   0.656  27.685   3.514  0.0887 -0.0963  0.3612
 2129DLPE   GL224216   0.536  27.471   3.707  0.0677 -0.0881  0.2341
 2129DLPE   C1A24217   0.825  27.827   3.822 -0.3588 -0.0256  0.0791
 2129DLPE   D2A24218   1.240  28.075   3.918  0.2988 -0.1911  0.0636
 2129DLPE   D3A24219   1.106  28.511   3.910 -0.0930  0.2643 -0.1933
 2129DLPE   C4A24220   0.642  28.474   3.946 -0.0430 -0.1530 -0.3025
 2129DLPE   C1B24221   0.517  27.551   4.119 -0.0914  0.1154  0.0190
 2129DLPE   D2B24222   0.298  27.448   4.617  0.0255 -0.1698  0.0852
 2129DLPE   D3B24223   0.439  27.111   4.931  0.3143  0.1004 -0.1652
 2129DLPE   C4B24224   0.688  27.295   5.229  0.0376 -0.0626  0.0324
 2130DLPE   NH324225   8.994  19.828   3.580 -0.0639  0.1867  0.1008
 2130DLPE   PO424226   9.203  19.624   3.345  0.1941 -0.3516 -0.1019
 2130DLPE   GL124227   9.453  19.477   3.708 -0.0467  0.0211 -0.0063
 2130DLPE   GL224228   9.496  19.784   3.626  0.0259  0.4313 -0.0795
 2130DLPE   C1A24229   9.550  19.498   4.197 -0.1041  0.2963  0.3216
 2130DLPE   D2A24230   9.360  19.732   4.542  0.0383  0.0554 -0.1362
 2130DLPE   D3A24231   9.395  19.747   5.065 -0.0515 -0.0149 -0.0155
 2130DLPE   C4A24232   9.075  19.544   5.407  0.1893 -0.0656  0.0240
 2130DLPE   C1B24233   9.832  19.834   3.916  0.1161  0.1108  0.0367
 2130DLPE   D2B24234  10.048  19.921   4.382  0.1425  0.1106 -0.0157
 2130DLPE   D3B24235   9.809  20.022   4.773  0.0257  0.1871 -0.6112
 2130DLPE   C4B24236   9.355  20.213   4.750 -0.0910 -0.2183 -0.2846
 2131DLPE   NH324237  11.070   6.375   3.266 -0.2439 -0.1580 -0.1491
 2131DLPE   PO424238  11.347   6.642   3.228  0.1975  0.2194 -0.0184
 2131DLPE   GL124239  11.340   6.819   3.577  0.1508 -0.2717  0.0405
 2131DLPE   GL224240  11.072   6.632   3.671 -0.1961 -0.2237  0.2392
 2131DLPE   C1A24241  11.548   6.700   3.968 -0.0391  0.0174  0.1937
 2131DLPE   D2A24242  11.553   6.619   4.459  0.0117 -0.4353  0.0586
 2131DLPE   D3A24243  11.477   6.334   4.811  0.2273  0.0320 -0.1507
 2131DLPE   C4A24244  11.385   6.147   5.231 -0.1568  0.0795  0.0212
 2131DLPE   C1B24245  11.158   6.327   3.923 -0.2080 -0.0939 -0.1757
 2131DLPE   D2B24246  11.103   5.850   4.159  0.1987  0.0312 -0.0507
 2131DLPE   D3B24247  11.362   6.096   4.362 -0.1113 -0.0354  0.0510
 2131DLPE   C4B24248  11.171   5.902   4.746  0.1891 -0.0595  0.0785
 2132DLPE   NH324249  23.464   4.763   3.382  0.1235 -0.3690 -0.0716
 2132DLPE   PO424250  23.420   5.058   3.527  0.3919 -0.2069  0.2434
 2132DLPE   GL124251  23.475   5.176   3.939 -0.0831  0.0447 -0.2166
 2132DLPE   GL224252  23.761   5.198   3.909  0.0622 -0.1985  0.0932
 2132DLPE   C1A24253  23.555   4.923   4.272  0.1819 -0.2959  0.2305
 2132DLPE   D2A24254  23.790   4.929   4.678 -0.2115 -0.1926  0.0081
 2132DLPE   D3A24255  23.594   5.058   5.013 -0.2000 -0.4601  0.0999
 2132DLPE   C4A24256  23.602   5.237   5.449 -0.2643  0.0371 -0.1357
 2132DLPE   C1B24257  23.942   5.277   4.322 -0.1605 -0.1273  0.0470
 2132DLPE   D2B24258  23.973   5.359   4.793 -0.3934  0.1500 -0.0594
 2132DLPE   D3B24259  23.981   5.315   5.218 -0.1087 -0.0843  0.0596
 2132DLPE   C4B24260  24.061   5.278   5.686 -0.1277  0.0013 -0.0960
 2133DLPE   NH324261  23.382  15.199   2.805  0.1319 -0.1827 -0.0961
 2133DLPE   PO424262  23.366  14.960   3.076  0.1439  0.2216 -0.1361
 2133DLPE   GL124263  23.400  15.238   3.361  0.0445  0.0300 -0.4309
 2133DLPE   GL224264  23.237  15.446   3.215 -0.0570  0.1597  0.0326
 2133DLPE   C1A24265  23.640  15.387   3.691  0.1162 -0.0019 -0.4080
 2133DLPE   D2A24266  24.038  15.473   3.986  0.0871  0.1262 -0.0818
 2133DLPE   D3A24267  23.793  15.825   4.090  0.1337  0.2042  0.2068
 2133DLPE   C4A24268  23.578  15.758   4.488 -0.4153 -0.0483 -0.0192
 2133DLPE   C1B24269  23.015  15.745   3.464 -0.0686 -0.0658  0.1595
 2133DLPE   D2B24270  22.922  15.995   3.883  0.2210  0.4264  0.1586
 2133DLPE   D3B24271  22.655  16.306   3.836  0.1282  0.2909  0.3082
 2133DLPE   C4B24272  22.601  16.766   3.893 -0.0531  0.2254  0.0946
 2134DLPE   NH324273  11.630  13.682   3.167 -0.4430 -0.1771  0.1192
 2134DLPE   PO424274  11.897  13.916   3.272  0.0501  0.1165  0.0049
 2134DLPE   GL124275  11.980  13.818   3.653  0.0286  0.3282  0.2261
 2134DLPE   GL224276  11.768  13.896   3.765 -0.0670  0.3371  0.2674
 2134DLPE   C1A24277  12.324  13.724   3.886 -0.1118  0.2479 -0.0611
 2134DLPE   D2A24278  12.667  13.760   4.259 -0.1974  0.0853  0.0077
 2134DLPE   D3A24279  12.512  13.865   4.659 -0.0602 -0.2715  0.0369
 2134DLPE   C4A24280  12.353  13.503   4.956  0.1217 -0.0213  0.0158
 2134DLPE   C1B24281  11.901  13.735   4.163  0.1305 -0.3699 -0.1698
 2134DLPE   D2B24282  12.043  13.586   4.574 -0.3343  0.2885 -0.1098
 2134DLPE   D3B24283  12.009  13.843   4.956  0.0539  0.0465 -0.0474
 2134DLPE   C4B24284  11.544  14.068   5.048 -0.1951  0.0575 -0.4520
 2135DLPE   NH324285  11.914   5.883   3.438  0.2900 -0.1672 -0.4441
 2135DLPE   PO424286  12.220   5.984   3.280 -0.1839  0.1126  0.0044
 2135DLPE   GL124287  12.333   6.154   3.665  0.1490  0.1287  0.2375
 2135DLPE   GL224288  12.355   6.435   3.580  0.0363  0.1033 -0.1004
 2135DLPE   C1A24289  12.521   6.121   4.037 -0.1334 -0.1724 -0.2005
 2135DLPE   D2A24290  12.715   6.261   4.494  0.0788 -0.2974 -0.1380
 2135DLPE   D3A24291  12.687   5.853   4.729 -0.1658 -0.2849 -0.1550
 2135DLPE   C4A24292  12.486   6.056   5.154 -0.0035 -0.1962  0.3486
 2135DLPE   C1B24293  12.561   6.570   3.940  0.4047 -0.3360 -0.2789
 2135DLPE   D2B24294  12.936   6.317   4.076 -0.0044  0.2156  0.4551
 2135DLPE   D3B24295  13.327   6.038   4.265  0.1890 -0.0273 -0.1321
 2135DLPE   C4B24296  13.480   5.769   3.887 -0.0175  0.2127 -0.1276
 2136DLPE   NH324297  23.784  20.316   3.109 -0.0833 -0.0036 -0.0529
 2136DLPE   PO424298  24.077  20.453   3.283  0.1382 -0.0184  0.1676
 2136DLPE   GL124299  24.039  20.391   3.669  0.1783 -0.4898 -0.0409
 2136DLPE   GL224300  23.850  20.386   3.772  0.2921  0.2556 -0.1382
 2136DLPE   C1A24301  24.320  20.306   3.937 -0.1652  0.1202  0.0367
 2136DLPE   D2A24302  24.402  20.146   4.360 -0.0322  0.1438 -0.0331
 2136DLPE   D3A24303  24.136  19.935   4.699 -0.0745  0.2828  0.2071
 2136DLPE   C4A24304  24.293  20.252   5.054  0.2531 -0.0414 -0.1597
 2136DLPE   C1B24305  23.934  20.340   4.208  0.3591  0.1919  0.2302
 2136DLPE   D2B24306  24.059  20.515   4.685 -0.1499  0.0071  0.3046
 2136DLPE   D3B24307  24.350  20.795   4.866 -0.0688  0.0844 -0.1365
 2136DLPE   C4B24308  24.631  20.888   5.288 -0.1162 -0.2517 -0.0420
 2137DLPE   NH324309  10.939  18.453   3.631 -0.0142  0.0384  0.1240
 2137DLPE   PO424310  11.107  18.145   3.775 -0.0793 -0.2913  0.1899
 2137DLPE   GL124311  11.161  18.159   4.145  0.0441 -0.2340 -0.0122
 2137DLPE   GL224312  11.116  18.414   4.192 -0.5483 -0.3944  0.1705
 2137DLPE   C1A24313  11.408  18.240   4.520 -0.2185 -0.0176 -0.2562
 2137DLPE   D2A24314  11.202  18.372   4.916 -0.1830  0.2835 -0.0587
 2137DLPE   D3A24315  10.775  18.488   5.006  0.0717  0.1237 -0.0997
 2137DLPE   C4A24316  10.946  18.882   4.875 -0.0054  0.1070 -0.4721
 2137DLPE   C1B24317  10.888  18.583   4.496  0.1718  0.2963 -0.0133
 2137DLPE   D2B24318  10.507  18.833   4.724  0.0688 -0.2166  0.2923
 2137DLPE   D3B24319  10.083  19.010   4.765 -0.1479  0.0138  0.0874
 2137DLPE   C4B24320  10.020  19.374   5.111 -0.2405 -0.2085 -0.0019
 2138DLPE   NH324321  22.596   5.439   3.369 -0.2108  0.0019  0.0881
 2138DLPE   PO424322  22.242   5.450   3.368  0.2081 -0.3800  0.4715
 2138DLPE   GL124323  22.281   5.466   3.761 -0.2011  0.0723 -0.0876
 2138DLPE   GL224324  22.550   5.429   3.841  0.0091 -0.0362 -0.2201
 2138DLPE   C1A24325  21.972   5.587   4.079  0.2222 -0.0198 -0.0567
 2138DLPE   D2A24326  21.636   5.905   4.280  0.0789 -0.0547 -0.1417
 2138DLPE   D3A24327  21.601   5.681   4.653  0.0241 -0.0956 -0.0819
 2138DLPE   C4A24328  21.129   5.815   4.733  0.0741 -0.3761 -0.1067
 2138DLPE   C1B24329  22.752   5.410   4.226 -0.1369  0.0213 -0.1297
 2138DLPE   D2B24330  23.046   5.675   4.512 -0.1399  0.1272  0.0487
 2138DLPE   D3B24331  22.599   5.622   4.604 -0.2196 -0.1169 -0.1802
 2138DLPE   C4B24332  22.140   5.539   4.531 -0.0773  0.0237 -0.1730
 2139DLPE   NH324333   1.361   3.240   3.295  0.2509  0.0407 -0.2291
 2139DLPE   PO424334   1.437   3.115   3.598  0.1776 -0.2746  0.0113
 2139DLPE   GL124335   1.226   3.117   3.987 -0.1695  0.0138 -0.2666
 2139DLPE   GL224336   1.505   3.251   4.119 -0.1083  0.0020 -0.0339
 2139DLPE   C1A24337   1.187   2.909   4.398 -0.1615 -0.0195 -0.0910
 2139DLPE   D2A24338   1.295   2.778   4.799  0.1918  0.1097  0.2981
 2139DLPE   D3A24339   1.507   3.000   5.125  0.1329 -0.0926  0.2145
 2139DLPE   C4A24340   1.571   3.271   4.702 -0.0466  0.2346 -0.0283
 2139DLPE   C1B24341   1.657   3.651   4.196  0.0500  0.1965 -0.1711
 2139DLPE   D2B24342   1.406   3.941   3.929 -0.0705 -0.1978 -0.0233
 2139DLPE   D3B24343   1.294   4.298   4.115  0.0363 -0.0837  0.1232
 2139DLPE   C4B24344   0.834   4.390   4.317  0.1350  0.1381 -0.1375
 2140DLPE   NH324345  23.317   6.714   2.883 -0.2231  0.1091  0.0295
 2140DLPE   PO424346  23.367   6.608   3.210  0.3752  0.0286  0.0423
 2140DLPE   GL124347  22.925   6.737   3.282 -0.1016  0.0004 -0.1659
 2140DLPE   GL224348  23.002   6.968   3.211 -0.2060 -0.2581 -0.2048
 2140DLPE   C1A24349  23.024   6.745   3.742 -0.1097  0.1288 -0.1638
 2140DLPE   D2A24350  22.951   6.722   4.204  0.0408  0.2826 -0.4855
 2140DLPE   D3A24351  23.017   6.647   4.632 -0.1988 -0.2606 -0.0070
 2140DLPE   C4A24352  22.970   6.535   5.105 -0.2799  0.2480  0.0217
 2140DLPE   C1B24353  22.888   7.243   3.568 -0.0531 -0.1225 -0.2632
 2140DLPE   D2B24354  22.751   7.206   4.013  0.3183  0.0073  0.1148
 2140DLPE   D3B24355  22.724   7.280   4.470 -0.0372  0.0779  0.1368
 2140DLPE   C4B24356  22.704   7.528   4.847  0.1337  0.3634 -0.0208
 2141DLPE   NH324357  19.574   3.968   3.492  0.0870 -0.0659 -0.0755
 2141DLPE   PO424358  19.929   3.985   3.407 -0.0592 -0.2437 -0.3293
 2141DLPE   GL124359  20.152   4.338   3.454  0.1716 -0.0592 -0.3091
 2141DLPE   GL224360  20.367   4.220   3.634 -0.1471 -0.0203  0.0361
 2141DLPE   C1A24361  19.983   4.643   3.686  0.3274 -0.1013  0.2001
 2141DLPE   D2A24362  19.946   4.874   4.175 -0.1300  0.0603  0.3329
 2141DLPE   D3A24363  20.139   4.528   4.447 -0.3894 -0.0465  0.1392
 2141DLPE   C4A24364  20.271   4.538   4.842 -0.0653 -0.1812 -0.0607
 2141DLPE   C1B24365  20.081   4.206   4.041 -0.2078  0.0056 -0.3953
 2141DLPE   D2B24366  19.801   3.824   4.037  0.2966 -0.3006  0.0273
 2141DLPE   D3B24367  19.966   3.761   4.441 -0.0696  0.1624 -0.1620
 2141DLPE   C4B24368  19.683   3.728   4.859  0.5938 -0.0711  0.1002
 2142DLPE   NH324369  20.609  19.726   3.890 -0.1237  0.0206  0.3652
 2142DLPE   PO424370  20.359  19.503   3.795  0.0719  0.2585  0.0328
 2142DLPE   GL124371  20.397  19.415   4.199 -0.1563 -0.2804 -0.2546
 2142DLPE   GL224372  20.146  19.253   4.293  0.1899  0.0850  0.2403
 2142DLPE   C1A24373  20.586  19.592   4.563  0.1427 -0.1303  0.2457
 2142DLPE   D2A24374  20.514  19.702   5.058  0.0270 -0.1799  0.1161
 2142DLPE   D3A24375  20.354  19.890   5.429  0.1319  0.0148 -0.1268
 2142DLPE   C4A24376  20.140  19.730   5.858 -0.3749 -0.1120  0.0727
 2142DLPE   C1B24377  20.205  19.309   4.691 -0.0127 -0.0769  0.2601
 2142DLPE   D2B24378  20.327  19.242   5.130 -0.4126 -0.1279 -0.0109
 2142DLPE   D3B24379  20.114  19.492   5.372  0.3692 -0.2167 -0.1269
 2142DLPE   C4B24380  20.399  19.295   5.723 -0.1300 -0.0250 -0.1667
 2143DLPE   NH324381   3.024  12.683   3.140 -0.1460  0.0890  0.5427
 2143DLPE   PO424382   2.963  12.772   3.450  0.3052  0.1969 -0.2703
 2143DLPE   GL124383   2.943  12.674   3.922 -0.1644  0.1388  0.0894
 2143DLPE   GL224384   3.161  12.910   3.884  0.0680  0.3137 -0.0760
 2143DLPE   C1A24385   3.033  12.485   4.269  0.2652  0.1358  0.0312
 2143DLPE   D2A24386   2.924  12.117   4.604  0.0975  0.1575  0.2350
 2143DLPE   D3A24387   2.832  12.339   4.941 -0.0453 -0.3233  0.1416
 2143DLPE   C4A24388   3.073  12.343   5.335  0.0312  0.1312  0.0334
 2143DLPE   C1B24389   3.145  13.005   4.323 -0.3172 -0.2170  0.1085
 2143DLPE   D2B24390   3.219  13.257   4.779  0.3016  0.0144  0.3675
 2143DLPE   D3B24391   3.579  13.452   4.820 -0.3073  0.1970  0.3206
 2143DLPE   C4B24392   3.574  13.899   5.033 -0.1609 -0.1649 -0.0856
 2144DLPE   NH324393  24.194  26.183   3.104 -0.1308  0.0555 -0.3036
 2144DLPE   PO424394  24.008  25.978   3.312 -0.2215  0.2448  0.4912
 2144DLPE   GL124395  24.272  26.152   3.630  0.0864  0.2718 -0.1305
 2144DLPE   GL224396  24.465  25.872   3.515 -0.3700 -0.2857  0.0072
 2144DLPE   C1A24397  24.105  26.238   4.042  0.0004  0.0413  0.2272
 2144DLPE   D2A24398  23.882  26.448   4.438 -0.0608  0.0254 -0.0016
 2144DLPE   D3A24399  23.777  26.715   4.813  0.1820 -0.0076 -0.0283
 2144DLPE   C4A24400  23.394  26.906   4.939  0.1208  0.0446  0.0515
 2144DLPE   C1B24401  24.297  25.648   3.834  0.1834 -0.0044 -0.0022
 2144DLPE   D2B24402  23.924  25.654   4.191  0.0022  0.1597 -0.2813
 2144DLPE   D3B24403  23.707  26.020   4.320  0.0763 -0.1055 -0.4321
 2144DLPE   C4B24404  23.815  26.058   4.777 -0.1446 -0.0951 -0.5350
 2145DLPE   NH324405  20.182  22.234   3.719  0.2983  0.0123  0.1063
 2145DLPE   PO424406  19.976  22.022   3.876  0.0276 -0.0719 -0.1397
 2145DLPE   GL124407  19.777  22.116   4.287  0.0017  0.0792  0.3486
 2145DLPE   GL224408  20.101  22.122   4.317 -0.5238  0.1918 -0.1503
 2145DLPE   C1A24409  19.691  22.086   4.708 -0.0890  0.0659 -0.0285
 2145DLPE   D2A24410  19.894  22.228   5.179  0.1486 -0.0011 -0.0058
 2145DLPE   D3A24411  19.706  22.481   5.481 -0.1050  0.0144  0.2972
 2145DLPE   C4A24412  19.668  22.440   5.901  0.1040 -0.1702  0.0389
 2145DLPE   C1B24413  20.219  22.070   4.697 -0.1468  0.0470 -0.0759
 2145DLPE   D2B24414  20.373  22.254   5.161  0.1967  0.0291  0.1110
 2145DLPE   D3B24415  20.316  22.250   5.610  0.0126 -0.0587 -0.0441
 2145DLPE   C4B24416  20.673  22.370   5.826 -0.2874  0.1573  0.2266
 2146DLPE   NH324417  20.476  21.829   3.814 -0.0685 -0.0361  0.2677
 2146DLPE   PO424418  20.235  21.605   3.977  0.1833  0.3270  0.0262
 2146DLPE   GL124419  20.330  21.430   4.260 -0.0741 -0.1101  0.2294
 2146DLPE   GL224420  20.421  21.728   4.419  0.3505 -0.2258 -0.2683
 2146DLPE   C1A24421  20.304  21.190   4.576  0.1458  0.0545 -0.2949
 2146DLPE   D2A24422  19.954  20.999   4.880  0.0680 -0.1322 -0.3172
 2146DLPE   D3A24423  19.964  20.599   5.090 -0.1251  0.2580  0.1699
 2146DLPE   C4A24424  19.838  20.330   4.707 -0.0499 -0.1817 -0.0611
 2146DLPE   C1B24425  20.487  21.595   4.810  0.1913 -0.2192 -0.1831
 2146DLPE   D2B24426  20.387  21.264   5.146  0.0149 -0.1940 -0.1864
 2146DLPE   D3B24427  20.001  21.252   5.381 -0.0689 -0.1086  0.4355
 2146DLPE   C4B24428  20.172  21.025   5.755  0.1753  0.2723 -0.0097
 2147DLPE   NH324429  17.307   3.044   3.650 -0.0349 -0.3575 -0.1369
 2147DLPE   PO424430  17.135   2.752   3.608  0.3113  0.0892 -0.3383
 2147DLPE   GL124431  17.023   2.639   4.017  0.2121  0.3155  0.1942
 2147DLPE   GL224432  17.124   2.360   3.958 -0.2149 -0.4979  0.3486
 2147DLPE   C1A24433  17.114   2.599   4.504  0.2764 -0.0732  0.5887
 2147DLPE   D2A24434  17.256   2.178   4.764  0.1283 -0.3128  0.1177
 2147DLPE   D3A24435  17.562   1.832   4.900  0.2218  0.1336 -0.0301
 2147DLPE   C4A24436  17.599   1.810   5.386  0.1162  0.0058  0.1436
 2147DLPE   C1B24437  17.363   2.225   4.316  0.0018 -0.0204  0.0242
 2147DLPE   D2B24438  17.803   1.975   4.378  0.1753  0.1267  0.1732
 2147DLPE   D3B24439  17.724   1.519   4.541  0.0688  0.1961  0.1958
 2147DLPE   C4B24440  17.846   1.381   4.999 -0.2056  0.0953 -0.1182
 2148DLPE   NH324441   1.167  23.918   3.269 -0.0561 -0.1012 -0.1201
 2148DLPE   PO424442   1.058  24.237   3.358 -0.0773  0.1871  0.0451
 2148DLPE   GL124443   1.035  24.265   3.762 -0.0860 -0.0765 -0.2034
 2148DLPE   GL224444   1.166  24.047   3.873  0.0480 -0.0428 -0.1877
 2148DLPE   C1A24445   0.813  24.520   4.002 -0.0835 -0.0093  0.2974
 2148DLPE   D2A24446   0.857  24.467   4.453 -0.0837 -0.0242  0.0277
 2148DLPE   D3A24447   0.978  24.153   4.772 -0.1098 -0.0225 -0.1303
 2148DLPE   C4A24448   0.937  23.874   4.528  0.1917  0.1068  0.0458
 2148DLPE   C1B24449   0.705  24.004   4.131 -0.1771 -0.1850  0.2422
 2148DLPE   D2B24450   0.297  24.095   3.823  0.0316  0.0355 -0.0259
 2148DLPE   D3B24451  -0.005  23.914   3.739 -0.0761  0.0883 -0.3313
 2148DLPE   C4B24452  -0.146  24.084   4.185  0.2029 -0.0252 -0.1417
 2149DLPE   NH324453  20.548   5.381   3.209  0.1486 -0.2034  0.1867
 2149DLPE   PO424454  20.256   5.227   3.245  0.0050  0.2037 -0.1476
 2149DLPE   GL124455  20.271   5.028   3.663 -0.0224  0.0983 -0.2067
 2149DLPE   GL224456  20.083   5.150   3.805 -0.2867  0.4320  0.0506
 2149DLPE   C1A24457  20.488   4.711   4.012 -0.0518 -0.2596 -0.0005
 2149DLPE   D2A24458  20.568   4.245   4.151 -0.0138  0.3638  0.0485
 2149DLPE   D3A24459  20.551   4.178   4.603  0.0202 -0.2726 -0.2299
 2149DLPE   C4A24460  20.438   3.761   4.388 -0.1616  0.1725 -0.0568
 2149DLPE   C1B24461  20.389   5.157   4.151  0.2862  0.0105  0.0041
 2149DLPE   D2B24462  20.490   4.933   4.640  0.0537 -0.3912 -0.3420
 2149DLPE   D3B24463  20.642   4.992   5.092 -0.1756  0.3499 -0.1041
 2149DLPE   C4B24464  20.619   4.593   5.326 -0.3628 -0.0038 -0.1302
 2150DLPE   NH324465   4.067  10.141   3.132 -0.1592  0.1124  0.1619
 2150DLPE   PO424466   4.103   9.878   3.358  0.1062  0.0913 -0.0721
 2150DLPE   GL124467   4.393   9.854   3.636 -0.0662  0.1080 -0.1790
 2150DLPE   GL224468   4.273   9.745   3.865  0.3024  0.4224 -0.0160
 2150DLPE   C1A24469   4.834  10.029   3.799  0.0259  0.0733  0.0385
 2150DLPE   D2A24470   5.079   9.977   4.233 -0.0379  0.0266  0.2048
 2150DLPE   D3A24471   5.237   9.594   4.457 -0.3688 -0.1379 -0.2254
 2150DLPE   C4A24472   5.023   9.445   4.879 -0.2062  0.2562 -0.1962
 2150DLPE   C1B24473   4.430   9.803   4.286 -0.0277  0.0161  0.0555
 2150DLPE   D2B24474   4.754   9.438   4.414 -0.0030 -0.1571  0.0678
 2150DLPE   D3B24475   4.885   9.549   3.971  0.0855  0.0478 -0.2849
 2150DLPE   C4B24476   5.242   9.537   3.694  0.0514  0.0631  0.0617
 2151DLPE   NH324477  27.590  14.569   3.413 -0.3446 -0.0754 -0.3139
 2151DLPE   PO424478  27.411  14.244   3.424  0.0541  0.1056 -0.0913
 2151DLPE   GL124479  27.426  14.245   3.863  0.1019 -0.0789 -0.3042
 2151DLPE   GL224480  27.149  14.068   3.924 -0.1092  0.0540 -0.0879
 2151DLPE   C1A24481  27.742  14.021   4.165 -0.2064  0.0458  0.0628
 2151DLPE   D2A24482  28.159  13.866   4.366 -0.0451 -0.0621 -0.0210
 2151DLPE   D3A24483  28.468  13.688   4.719 -0.1644  0.0595 -0.0048
 2151DLPE   C4A24484  28.224  13.589   5.125  0.1466 -0.0811 -0.1304
 2151DLPE   C1B24485  27.011  14.211   4.296  0.1210 -0.1245 -0.0652
 2151DLPE   D2B24486  26.827  14.051   4.796 -0.0805  0.2218 -0.0583
 2151DLPE   D3B24487  26.748  13.801   5.087  0.0503 -0.0246 -0.0624
 2151DLPE   C4B24488  26.538  13.406   5.073  0.0105 -0.3680  0.1527
 2152DLPE   NH324489  15.927  25.469   3.872  0.1109  0.0457 -0.0527
 2152DLPE   PO424490  16.117  25.766   3.829 -0.2290 -0.1066  0.0076
 2152DLPE   GL124491  16.062  25.707   4.249  0.0163 -0.2544 -0.3098
 2152DLPE   GL224492  16.131  26.006   4.205  0.0717  0.3574  0.0259
 2152DLPE   C1A24493  15.858  25.577   4.563  0.0419  0.1869  0.1292
 2152DLPE   D2A24494  15.641  25.474   4.946 -0.1462  0.0010 -0.3730
 2152DLPE   D3A24495  15.659  25.071   5.203 -0.1026  0.0252  0.0821
 2152DLPE   C4A24496  15.364  25.033   5.567 -0.0465  0.1937 -0.2617
 2152DLPE   C1B24497  16.066  26.062   4.592  0.3752 -0.1102 -0.3172
 2152DLPE   D2B24498  16.149  25.820   5.039  0.0825  0.4901  0.1472
 2152DLPE   D3B24499  15.988  25.467   5.277  0.1259  0.0144 -0.3315
 2152DLPE   C4B24500  15.665  25.398   5.610  0.2194 -0.1442  0.0800
 2153DLPE   NH324501   4.163  13.459   3.145  0.0255 -0.0817 -0.0774
 2153DLPE   PO424502   4.487  13.324   3.246 -0.1424 -0.0475 -0.1225
 2153DLPE   GL124503   4.539  12.996   3.529 -0.1431 -0.1679  0.3236
 2153DLPE   GL224504   4.274  12.921   3.549 -0.1079 -0.1118  0.3301
 2153DLPE   C1A24505   4.762  12.912   3.825 -0.0980 -0.0635 -0.0421
 2153DLPE   D2A24506   4.881  12.855   4.333  0.3379  0.1270  0.1412
 2153DLPE   D3A24507   5.045  12.488   4.480  0.0165  0.0483 -0.0089
 2153DLPE   C4A24508   4.850  12.418   4.880 -0.0629 -0.0147 -0.1207
 2153DLPE   C1B24509   4.358  12.700   3.920 -0.0307 -0.2142 -0.1726
 2153DLPE   D2B24510   4.595  12.427   4.260  0.0056  0.2227 -0.0155
 2153DLPE   D3B24511   4.507  12.174   4.565 -0.3194 -0.2262  0.3484
 2153DLPE   C4B24512   4.399  12.595   4.723 -0.0988 -0.1932 -0.2164
 2154DLPE   NH324513  18.284   1.344   3.543 -0.3677 -0.0475  0.1635
 2154DLPE   PO424514  18.386   1.016   3.651  0.1286  0.1024  0.0243
 2154DLPE   GL124515  18.464   1.148   4.006  0.2745  0.0872  0.2037
 2154DLPE   GL224516  18.458   1.405   4.060  0.2306  0.0456  0.0730
 2154DLPE   C1A24517  18.699   1.072   4.471  0.0866  0.2386  0.3908
 2154DLPE   D2A24518  18.387   0.970   4.848 -0.1724  0.2491  0.1524
 2154DLPE   D3A24519  18.060   1.165   4.643 -0.2143  0.2935  0.0204
 2154DLPE   C4A24520  18.251   0.837   4.331  0.0515  0.3279 -0.2489
 2154DLPE   C1B24521  18.267   1.589   4.412 -0.1836 -0.4729  0.0958
 2154DLPE   D2B24522  18.082   1.807   4.801  0.2730 -0.0580  0.1331
 2154DLPE   D3B24523  18.341   1.472   5.084  0.2677 -0.3193  0.1356
 2154DLPE   C4B24524  18.108   1.069   5.271 -0.1794  0.0687  0.1892
 2155DLPE   NH324525  15.609  13.189   2.901  0.0617 -0.0866 -0.0522
 2155DLPE   PO424526  15.299  13.050   3.050 -0.1606  0.1018  0.1516
 2155DLPE   GL124527  15.510  13.001   3.319  0.1085  0.1894 -0.0456
 2155DLPE   GL224528  15.585  12.723   3.306  0.3533  0.0368  0.0307
 2155DLPE   C1A24529  15.849  12.970   3.577 -0.0076 -0.0117 -0.1246
 2155DLPE   D2A24530  15.910  12.852   4.077  0.0703 -0.0556  0.0329
 2155DLPE   D3A24531  15.496  12.794   4.260 -0.0422  0.0218  0.1256
 2155DLPE   C4A24532  15.188  12.750   4.623  0.2290  0.2498  0.1800
 2155DLPE   C1B24533  15.445  12.654   3.710  0.3314 -0.4025  0.0605
 2155DLPE   D2B24534  15.618  12.344   4.045  0.1463  0.0394  0.0268
 2155DLPE   D3B24535  15.586  11.939   3.956 -0.1310  0.1698 -0.1240
 2155DLPE   C4B24536  15.811  11.864   4.299 -0.3782 -0.0276  0.2592
 2156DLPE   NH324537  15.871   5.266   3.305 -0.1711  0.2094 -0.2113
 2156DLPE   PO424538  16.276   5.277   3.226 -0.2290  0.1102 -0.1499
 2156DLPE   GL124539  16.378   5.479   3.602 -0.1167  0.0191  0.1654
 2156DLPE   GL224540  16.312   5.774   3.502 -0.3453 -0.0193 -0.1377
 2156DLPE   C1A24541  16.582   5.475   3.950  0.0670 -0.0286 -0.2145
 2156DLPE   D2A24542  16.603   5.287   4.359 -0.3066 -0.4957 -0.1780
 2156DLPE   D3A24543  16.607   5.350   4.796  0.0181 -0.0626  0.2999
 2156DLPE   C4A24544  16.355   5.286   5.145 -0.1173 -0.2747 -0.0742
 2156DLPE   C1B24545  16.268   5.956   3.890  0.1103 -0.0696  0.1817
 2156DLPE   D2B24546  16.441   5.804   4.338 -0.2024  0.1912  0.2687
 2156DLPE   D3B24547  16.358   5.787   4.774 -0.0567 -0.1561 -0.0946
 2156DLPE   C4B24548  16.520   5.749   5.209 -0.1916 -0.1375  0.2422
 2157DLPE   NH324549  20.843   6.307   3.319  0.1119  0.0773 -0.1149
 2157DLPE   PO424550  21.125   6.358   3.137  0.1394  0.0046 -0.3275
 2157DLPE   GL124551  21.335   6.255   3.472 -0.0720 -0.3091  0.0661
 2157DLPE   GL224552  21.473   6.525   3.546 -0.4309 -0.0094 -0.5106
 2157DLPE   C1A24553  21.026   6.199   3.804 -0.1986 -0.0053 -0.2457
 2157DLPE   D2A24554  20.876   6.590   4.006  0.2472  0.0539  0.1844
 2157DLPE   D3A24555  20.772   6.958   4.247  0.0094  0.1038  0.3306
 2157DLPE   C4A24556  20.465   7.246   4.130  0.0684 -0.3990 -0.0973
 2157DLPE   C1B24557  21.362   6.765   3.876 -0.0446 -0.0312  0.0860
 2157DLPE   D2B24558  21.270   6.880   4.380 -0.1318 -0.0122  0.2367
 2157DLPE   D3B24559  21.520   6.660   4.645 -0.0168 -0.0221 -0.0057
 2157DLPE   C4B24560  21.761   6.880   5.039 -0.0837  0.4711 -0.0873
 2158DLPE   NH324561   7.880   0.283   3.524 -0.0116  0.2701  0.0909
 2158DLPE   PO424562   7.707   0.548   3.391 -0.0338 -0.1618 -0.1346
 2158DLPE   GL124563   7.372   0.759   3.627 -0.3231  0.1461  0.1302
 2158DLPE   GL224564   7.350   0.626   3.865 -0.2728 -0.0184 -0.0680
 2158DLPE   C1A24565   7.680   1.065   3.697  0.2792  0.0377  0.0137
 2158DLPE   D2A24566   7.957   1.337   4.047  0.4985  0.1878 -0.1028
 2158DLPE   D3A24567   8.288   1.537   4.197 -0.0029 -0.1458  0.3766
 2158DLPE   C4A24568   8.785   1.574   4.191 -0.1756 -0.0738  0.1515
 2158DLPE   C1B24569   7.085   0.683   4.208 -0.0774 -0.0015 -0.0520
 2158DLPE   D2B24570   6.776   0.995   4.383  0.0938  0.0179 -0.0807
 2158DLPE   D3B24571   6.889   0.838   4.801  0.2395  0.0936 -0.1507
 2158DLPE   C4B24572   7.230   0.513   4.787 -0.0727  0.0149  0.2012
 2159DLPE   NH324573   3.313  14.109   3.317 -0.0313 -0.0103  0.1029
 2159DLPE   PO424574   3.583  14.294   3.222  0.0089 -0.2643 -0.2066
 2159DLPE   GL124575   3.627  14.650   3.565  0.4033  0.3616  0.0496
 2159DLPE   GL224576   3.563  14.468   3.705  0.0499 -0.1541 -0.0450
 2159DLPE   C1A24577   3.330  14.864   3.715  0.1762  0.3400 -0.2250
 2159DLPE   D2A24578   3.050  14.882   4.034  0.0123  0.3572  0.2660
 2159DLPE   D3A24579   2.672  15.020   3.963 -0.2331  0.3157  0.0725
 2159DLPE   C4A24580   2.253  14.779   3.903  0.1274  0.5916  0.0255
 2159DLPE   C1B24581   3.288  14.446   4.005  0.0921 -0.0938  0.3134
 2159DLPE   D2B24582   3.110  14.557   4.443 -0.0856  0.1036 -0.0686
 2159DLPE   D3B24583   3.211  14.849   4.746 -0.0273  0.1307 -0.1466
 2159DLPE   C4B24584   3.442  14.871   5.180  0.1216 -0.0951 -0.0642
 2160DLPE   NH324585  13.988  27.182   4.256 -0.1126  0.3063 -0.2788
 2160DLPE   PO424586  14.124  27.478   4.118 -0.0135  0.1052  0.0000
 2160DLPE   GL124587  14.097  27.707   4.419 -0.0258 -0.2966  0.1686
 2160DLPE   GL224588  14.261  27.533   4.612 -0.2686 -0.0984  0.0298
 2160DLPE   C1A24589  13.976  27.875   4.730 -0.1130 -0.0080 -0.1236
 2160DLPE   D2A24590  13.975  28.206   4.417 -0.4055  0.0826 -0.3526
 2160DLPE   D3A24591  13.980  28.653   4.526 -0.4135  0.4292  0.1360
 2160DLPE   C4A24592  13.578  28.797   4.744  0.0507 -0.3440 -0.2413
 2160DLPE   C1B24593  14.147  27.361   4.943  0.1261  0.1923 -0.1574
 2160DLPE   D2B24594  13.715  27.440   5.225  0.0445  0.2706 -0.3170
 2160DLPE   D3B24595  13.645  27.617   5.604  0.1799 -0.1041  0.1508
 2160DLPE   C4B24596  13.321  27.465   5.924  0.0100  0.0008 -0.0377
 2161DLPE   NH324597   1.812  26.884   3.304 -0.1364 -0.0274  0.3008
 2161DLPE   PO424598   1.686  27.016   3.568  0.1841 -0.2820 -0.2452
 2161DLPE   GL124599   1.494  26.842   3.978 -0.1612  0.2504 -0.0055
 2161DLPE   GL224600   1.294  27.092   3.981  0.0307  0.1347  0.1114
 2161DLPE   C1A24601   1.501  26.477   4.261 -0.0854 -0.0942 -0.2160
 2161DLPE   D2A24602   1.695  26.187   4.614 -0.1643 -0.0534 -0.0391
 2161DLPE   D3A24603   1.960  25.820   4.379 -0.1312  0.2559 -0.2935
 2161DLPE   C4A24604   2.523  25.661   4.522  0.1091 -0.5185  0.1797
 2161DLPE   C1B24605   1.142  27.091   4.378  0.0555 -0.1502  0.1874
 2161DLPE   D2B24606   0.999  27.266   4.814 -0.1184 -0.2294  0.2461
 2161DLPE   D3B24607   1.045  26.936   5.132  0.1453  0.0360  0.2235
 2161DLPE   C4B24608   0.718  26.823   5.456 -0.1424 -0.1468  0.0114
 2162DLPE   NH324609   0.260   1.611   3.299 -0.0560  0.1712 -0.4422
 2162DLPE   PO424610   0.553   1.750   3.492  0.2316  0.2183  0.2860
 2162DLPE   GL124611   0.653   1.876   3.847  0.0971 -0.0194 -0.2076
 2162DLPE   GL224612   0.865   1.974   3.899  0.2573 -0.3806 -0.1027
 2162DLPE   C1A24613   0.558   2.280   4.041 -0.2008  0.4388 -0.1471
 2162DLPE   D2A24614   0.359   2.277   4.441  0.3287  0.0067 -0.0889
 2162DLPE   D3A24615   0.188   2.536   4.859  0.0052  0.2920 -0.2810
 2162DLPE   C4A24616   0.090   2.687   5.336 -0.0725  0.3805 -0.2773
 2162DLPE   C1B24617   1.135   1.680   4.121  0.0758 -0.1398  0.0053
 2162DLPE   D2B24618   1.507   1.552   4.274 -0.1847 -0.1773  0.2564
 2162DLPE   D3B24619   1.908   1.716   4.358 -0.0167 -0.1927 -0.0118
 2162DLPE   C4B24620   2.224   1.611   4.703 -0.0572  0.2794  0.0410
 2163DLPE   NH324621   3.630   9.882   3.296  0.0341  0.1726 -0.0523
 2163DLPE   PO424622   3.575  10.230   3.305  0.0486  0.0083 -0.2020
 2163DLPE   GL124623   3.470  10.039   3.737  0.0330  0.1364 -0.1501
 2163DLPE   GL224624   3.744   9.986   3.750 -0.0652 -0.0799 -0.1352
 2163DLPE   C1A24625   3.217  10.086   4.164 -0.4364 -0.0921  0.1596
 2163DLPE   D2A24626   3.268  10.176   4.640  0.0601 -0.2397  0.2858
 2163DLPE   D3A24627   3.532  10.527   4.523  0.0090 -0.2407  0.3492
 2163DLPE   C4A24628   3.998  10.706   4.606  0.1176  0.0506  0.1388
 2163DLPE   C1B24629   3.801   9.729   4.043 -0.1984 -0.1780  0.0763
 2163DLPE   D2B24630   3.935   9.649   4.454  0.0269 -0.0576 -0.2129
 2163DLPE   D3B24631   3.830   9.676   4.885 -0.1378  0.2002 -0.0164
 2163DLPE   C4B24632   3.384   9.756   4.998  0.1757 -0.0502  0.2169
 2164DLPE   NH324633   5.018  26.901   3.606 -0.0709  0.1291 -0.0644
 2164DLPE   PO424634   5.135  26.550   3.710  0.1122  0.1985 -0.0978
 2164DLPE   GL124635   5.017  26.478   4.133 -0.3136 -0.1180  0.3563
 2164DLPE   GL224636   5.008  26.183   4.154 -0.1525  0.1714 -0.0905
 2164DLPE   C1A24637   5.355  26.615   4.477  0.1038 -0.0342 -0.1570
 2164DLPE   D2A24638   5.831  26.440   4.734  0.1753 -0.1548  0.1082
 2164DLPE   D3A24639   5.841  26.801   4.529 -0.1178 -0.4165 -0.0522
 2164DLPE   C4A24640   5.943  26.936   4.972 -0.1027 -0.0830  0.2360
 2164DLPE   C1B24641   5.070  26.086   4.515 -0.3058  0.1278 -0.0115
 2164DLPE   D2B24642   5.241  26.278   4.955  0.0838 -0.0088  0.2462
 2164DLPE   D3B24643   5.613  26.430   5.166  0.2877  0.1633  0.1306
 2164DLPE   C4B24644   5.246  26.588   5.410  0.2490  0.0502  0.1076
 2165DLPE   NH324645  15.005   2.363   3.747 -0.0917  0.2854  0.3918
 2165DLPE   PO424646  15.326   2.272   3.686  0.3362 -0.4409 -0.2869
 2165DLPE   GL124647  15.482   2.553   3.951 -0.1731 -0.1465 -0.2026
 2165DLPE   GL224648  15.275   2.675   4.163 -0.1131 -0.0963  0.2202
 2165DLPE   C1A24649  15.679   2.407   4.268  0.0391  0.2849  0.0818
 2165DLPE   D2A24650  15.912   2.420   4.675 -0.3737 -0.2602  0.1026
 2165DLPE   D3A24651  16.367   2.410   4.482  0.2433 -0.1817 -0.3744
 2165DLPE   C4A24652  16.622   2.311   4.062 -0.2726 -0.1317  0.0757
 2165DLPE   C1B24653  15.415   2.686   4.587 -0.0933  0.2061  0.0947
 2165DLPE   D2B24654  15.661   2.936   4.930  0.0755 -0.0841  0.0175
 2165DLPE   D3B24655  15.746   2.802   5.277 -0.2811 -0.0990 -0.0740
 2165DLPE   C4B24656  16.201   2.865   5.406 -0.0337  0.3567  0.0521
 2166DLPE   NH324657  14.645  23.847   3.850  0.1198  0.1163 -0.0931
 2166DLPE   PO424658  14.404  23.656   3.697  0.2678  0.0632 -0.0366
 2166DLPE   GL124659  14.165  23.537   4.082  0.0361 -0.2107 -0.0789
 2166DLPE   GL224660  14.320  23.282   4.067  0.0154  0.0223  0.2992
 2166DLPE   C1A24661  13.785  23.265   4.107  0.1091  0.2759 -0.4303
 2166DLPE   D2A24662  13.554  23.341   4.546  0.1848 -0.1278  0.0309
 2166DLPE   D3A24663  13.142  23.275   4.605 -0.1372  0.0183 -0.2173
 2166DLPE   C4A24664  13.196  23.476   5.007  0.1091  0.0681 -0.1617
 2166DLPE   C1B24665  14.240  23.208   4.518 -0.5180 -0.0813  0.1065
 2166DLPE   D2B24666  13.971  23.300   4.967 -0.2809  0.0012 -0.0875
 2166DLPE   D3B24667  13.678  23.458   5.294 -0.0273 -0.0826 -0.0003
 2166DLPE   C4B24668  13.343  23.517   5.596  0.2291  0.0175 -0.4033
 2167DLPE   NH324669  13.815   3.425   3.688 -0.1816  0.0309 -0.0444
 2167DLPE   PO424670  13.495   3.482   3.752  0.0095 -0.0264  0.2569
 2167DLPE   GL124671  13.423   3.572   4.086 -0.1406 -0.0501 -0.3533
 2167DLPE   GL224672  13.384   3.314   4.260 -0.0459  0.3895 -0.4151
 2167DLPE   C1A24673  13.566   3.968   4.335 -0.0204  0.0745  0.0449
 2167DLPE   D2A24674  13.627   4.168   4.843 -0.2954 -0.1471  0.0881
 2167DLPE   D3A24675  13.305   4.195   5.119  0.1165 -0.0808  0.0696
 2167DLPE   C4A24676  13.408   4.012   5.550 -0.2556  0.0042 -0.2237
 2167DLPE   C1B24677  13.196   3.277   4.624  0.1058 -0.1467 -0.0038
 2167DLPE   D2B24678  13.034   3.281   5.083  0.2070  0.1715 -0.2221
 2167DLPE   D3B24679  13.155   3.647   5.385  0.0076 -0.1241 -0.2089
 2167DLPE   C4B24680  13.540   3.460   5.515 -0.0871 -0.1059  0.3614
 2168DLPE   NH324681  27.354  18.113   3.912  0.0059 -0.2552 -0.3529
 2168DLPE   PO424682  27.091  18.371   3.813  0.1624  0.1069 -0.0556
 2168DLPE   GL124683  26.771  18.154   4.131  0.2090  0.1265  0.0017
 2168DLPE   GL224684  26.979  18.142   4.275 -0.1125  0.4655  0.1499
 2168DLPE   C1A24685  26.674  17.748   4.243 -0.1092  0.0325 -0.0482
 2168DLPE   D2A24686  26.676  17.389   4.583  0.0216  0.1158  0.2242
 2168DLPE   D3A24687  26.550  17.319   4.996  0.0395  0.0069  0.2780
 2168DLPE   C4A24688  26.127  17.367   5.242  0.0326 -0.1071  0.0750
 2168DLPE   C1B24689  26.863  18.097   4.687  0.3635  0.1252 -0.1854
 2168DLPE   D2B24690  26.914  18.204   5.167 -0.0580 -0.4213 -0.1691
 2168DLPE   D3B24691  27.283  18.036   5.406  0.1116 -0.1373 -0.0108
 2168DLPE   C4B24692  27.299  18.411   5.756  0.0371 -0.0232  0.0331
 2169DLPE   NH324693   5.414  10.462   2.997  0.0488 -0.0415  0.2865
 2169DLPE   PO424694   5.330  10.777   3.114  0.1424  0.2225 -0.3189
 2169DLPE   GL124695   5.215  10.859   3.503 -0.4516  0.0743 -0.1327
 2169DLPE   GL224696   5.415  10.586   3.533 -0.0922  0.1003 -0.1191
 2169DLPE   C1A24697   5.375  11.170   3.800  0.0600  0.2551  0.0546
 2169DLPE   D2A24698   5.442  11.151   4.327 -0.0454  0.1844  0.3716
 2169DLPE   D3A24699   5.126  11.238   4.573  0.0754  0.0625  0.2091
 2169DLPE   C4A24700   4.937  10.850   4.822  0.0234  0.2742 -0.1849
 2169DLPE   C1B24701   5.478  10.705   3.949  0.1693 -0.5794  0.1585
 2169DLPE   D2B24702   5.731  10.648   4.417 -0.1792  0.2308  0.0948
 2169DLPE   D3B24703   5.487  10.757   4.751  0.2845 -0.0029 -0.1563
 2169DLPE   C4B24704   5.467  11.115   5.041  0.0840  0.0173  0.0883
 2170DLPE   NH324705  18.430  25.651   3.395 -0.1268  0.1529 -0.0748
 2170DLPE   PO424706  18.146  25.548   3.546 -0.1285 -0.2877 -0.0746
 2170DLPE   GL124707  18.169  25.563   3.932 -0.0601  0.1746 -0.0057
 2170DLPE   GL224708  18.176  25.768   4.073 -0.4390  0.1042 -0.0855
 2170DLPE   C1A24709  18.035  25.172   4.129 -0.2185 -0.2277 -0.2500
 2170DLPE   D2A24710  17.735  24.909   4.362  0.0766 -0.1106  0.1950
 2170DLPE   D3A24711  18.040  24.885   4.702 -0.1243  0.1231 -0.0433
 2170DLPE   C4A24712  18.195  25.073   5.207  0.2158  0.0265 -0.1208
 2170DLPE   C1B24713  18.320  25.706   4.471  0.1435 -0.0938  0.0702
 2170DLPE   D2B24714  18.377  25.973   4.909 -0.1218  0.1647  0.3117
 2170DLPE   D3B24715  18.617  25.840   5.256 -0.1658 -0.0019  0.0778
 2170DLPE   C4B24716  18.332  25.846   5.602 -0.3458  0.0949  0.0167
 2171DLPE   NH324717   6.871  15.415   3.248  0.2048  0.3224 -0.2458
 2171DLPE   PO424718   6.568  15.171   3.232 -0.3953  0.1710  0.3606
 2171DLPE   GL124719   6.532  15.161   3.624 -0.1758  0.1062  0.3950
 2171DLPE   GL224720   6.468  15.392   3.660  0.1666  0.3860 -0.1331
 2171DLPE   C1A24721   6.387  14.860   3.876  0.0378  0.2142  0.0198
 2171DLPE   D2A24722   6.170  14.474   4.168 -0.0892  0.2460  0.1225
 2171DLPE   D3A24723   6.277  14.081   4.023 -0.0210  0.1293 -0.2026
 2171DLPE   C4A24724   6.194  13.608   4.071 -0.0626  0.0524 -0.1185
 2171DLPE   C1B24725   6.144  15.449   3.940  0.6603 -0.1862 -0.0829
 2171DLPE   D2B24726   6.070  15.555   4.389  0.3867 -0.2667 -0.0265
 2171DLPE   D3B24727   6.182  15.442   4.803 -0.0312  0.0658 -0.0559
 2171DLPE   C4B24728   6.446  15.021   4.947  0.4102  0.1799  0.0632
 2172DLPE   NH324729  20.878  13.459   3.190 -0.1508  0.1740  0.2677
 2172DLPE   PO424730  20.603  13.456   3.381  0.2989  0.3713  0.4406
 2172DLPE   GL124731  20.694  13.771   3.657  0.0481  0.2335 -0.0313
 2172DLPE   GL224732  21.017  13.713   3.604 -0.1836  0.2149  0.0278
 2172DLPE   C1A24733  20.511  14.026   3.949  0.1368  0.1339  0.1862
 2172DLPE   D2A24734  20.418  14.177   4.431  0.1595  0.0456 -0.0636
 2172DLPE   D3A24735  20.395  13.939   4.844 -0.0164 -0.1165  0.0595
 2172DLPE   C4A24736  20.859  13.785   4.916 -0.3032 -0.0722  0.0444
 2172DLPE   C1B24737  21.002  13.937   3.978 -0.1354  0.4183  0.0714
 2172DLPE   D2B24738  21.220  13.574   4.292 -0.0036  0.0304 -0.0525
 2172DLPE   D3B24739  21.203  13.358   4.671 -0.0098  0.1164 -0.0542
 2172DLPE   C4B24740  21.373  13.748   4.852  0.0022  0.1670  0.1083
 2173DLPE   NH324741  13.507   6.372   3.344  0.1468 -0.0874  0.1273
 2173DLPE   PO424742  13.725   6.360   3.613  0.2862 -0.0749  0.1032
 2173DLPE   GL124743  13.539   6.353   4.017 -0.4982  0.1205 -0.0606
 2173DLPE   GL224744  13.756   6.129   4.071  0.0196 -0.0469  0.3484
 2173DLPE   C1A24745  13.366   6.754   4.079  0.2511  0.1565 -0.0713
 2173DLPE   D2A24746  12.934   6.729   4.323  0.1026  0.3616  0.0893
 2173DLPE   D3A24747  12.809   6.850   4.716 -0.0416 -0.2214  0.2941
 2173DLPE   C4A24748  12.831   6.918   5.163 -0.0261  0.2134 -0.0211
 2173DLPE   C1B24749  13.796   6.262   4.473 -0.1524 -0.2059 -0.0126
 2173DLPE   D2B24750  13.601   6.401   4.893  0.0913  0.1589  0.4640
 2173DLPE   D3B24751  13.295   6.572   5.125  0.0544 -0.2440  0.1897
 2173DLPE   C4B24752  12.880   6.445   5.336 -0.1705  0.1958 -0.0672
 2174DLPE   NH324753   6.941  27.173   3.566  0.2927  0.0141  0.2768
 2174DLPE   PO424754   7.173  27.431   3.551 -0.0471  0.4812 -0.0884
 2174DLPE   GL124755   7.082  27.587   3.933  0.3062  0.3657 -0.1517
 2174DLPE   GL224756   7.337  27.651   3.995 -0.1614  0.2304 -0.4409
 2174DLPE   C1A24757   6.903  27.511   4.290  0.0769  0.1086 -0.3105
 2174DLPE   D2A24758   6.666  27.344   4.754 -0.0158  0.1015  0.2613
 2174DLPE   D3A24759   6.968  27.025   4.601 -0.1094 -0.2520  0.0946
 2174DLPE   C4A24760   6.523  26.893   4.438 -0.2464 -0.0090 -0.0370
 2174DLPE   C1B24761   7.447  27.644   4.398 -0.1328  0.0348  0.1330
 2174DLPE   D2B24762   7.555  27.790   4.844 -0.1581  0.0008  0.2533
 2174DLPE   D3B24763   7.809  27.923   5.162  0.0864  0.1665 -0.0359
 2174DLPE   C4B24764   8.141  27.596   5.168 -0.1283 -0.4467  0.4446
 2175DLPE   NH324765  15.722   1.950   3.799  0.0607 -0.2100  0.3754
 2175DLPE   PO424766  15.454   1.752   3.940 -0.1480  0.0509  0.2124
 2175DLPE   GL124767  15.599   1.457   4.167  0.2119  0.1324 -0.0277
 2175DLPE   GL224768  15.796   1.712   4.258 -0.6076 -0.3695  0.3990
 2175DLPE   C1A24769  15.598   1.321   4.652 -0.4006  0.1211  0.0927
 2175DLPE   D2A24770  15.911   1.019   4.971  0.3708 -0.3437  0.4812
 2175DLPE   D3A24771  15.660   0.996   5.332 -0.1538 -0.0098  0.0968
 2175DLPE   C4A24772  15.863   0.820   5.777 -0.0256 -0.0214  0.0609
 2175DLPE   C1B24773  15.681   2.031   4.647  0.0834 -0.2433 -0.1053
 2175DLPE   D2B24774  15.642   2.288   5.065 -0.1819  0.4397 -0.0459
 2175DLPE   D3B24775  15.632   1.975   5.376 -0.0990  0.1316  0.3474
 2175DLPE   C4B24776  15.372   2.041   5.783 -0.0230  0.1049 -0.3290
 2176DLPE   NH324777  25.742  23.787   3.199  0.1300  0.0981  0.0523
 2176DLPE   PO424778  25.999  23.962   3.372 -0.1576 -0.0442  0.0810
 2176DLPE   GL124779  25.860  23.880   3.769 -0.2032 -0.2543 -0.2457
 2176DLPE   GL224780  25.849  24.206   3.815 -0.1480  0.0119 -0.3826
 2176DLPE   C1A24781  25.974  23.547   4.148  0.0588  0.1482 -0.0673
 2176DLPE   D2A24782  26.283  23.295   4.439 -0.1098  0.2660 -0.0841
 2176DLPE   D3A24783  26.605  23.444   4.704 -0.2158  0.0059  0.2553
 2176DLPE   C4A24784  26.690  23.479   5.188  0.0510  0.0924  0.4350
 2176DLPE   C1B24785  26.126  24.278   4.188  0.0476 -0.2845  0.2555
 2176DLPE   D2B24786  26.292  24.205   4.658  0.2719 -0.0679 -0.2379
 2176DLPE   D3B24787  26.230  24.250   5.095  0.1083  0.0840 -0.1667
 2176DLPE   C4B24788  25.911  24.158   5.454 -0.0846  0.2226  0.0313
 2177DLPE   NH324789   0.301  22.217   3.341  0.1997 -0.0180  0.0983
 2177DLPE   PO424790   0.541  21.974   3.424  0.2939  0.2055  0.1622
 2177DLPE   GL124791   0.623  21.994   3.822 -0.5569  0.2069  0.2883
 2177DLPE   GL224792   0.436  21.779   3.824  0.0967  0.2526 -0.4791
 2177DLPE   C1A24793   0.757  22.320   4.135  0.2577 -0.0038 -0.0175
 2177DLPE   D2A24794   0.768  22.708   4.518  0.2198  0.2720  0.3201
 2177DLPE   D3A24795   0.502  22.465   4.783  0.0126 -0.0522 -0.0104
 2177DLPE   C4A24796   0.816  22.145   4.584  0.1600 -0.1123  0.0538
 2177DLPE   C1B24797   0.186  21.712   4.181  0.1235  0.0053  0.0517
 2177DLPE   D2B24798  -0.016  21.546   4.621 -0.4571  0.0913  0.1922
 2177DLPE   D3B24799  -0.038  21.670   5.046 -0.0963 -0.1742 -0.0130
 2177DLPE   C4B24800  -0.388  21.594   5.368 -0.0302 -0.0273 -0.0416
 2178DLPE   NH324801  10.028   1.170   2.930  0.2668 -0.4217  0.2934
 2178DLPE   PO424802   9.885   1.454   2.938  0.1247 -0.0673  0.0990
 2178DLPE   GL124803   9.928   1.644   3.369 -0.2734  0.1171  0.0259
 2178DLPE   GL224804  10.232   1.448   3.394  0.1175  0.3424 -0.0271
 2178DLPE   C1A24805   9.764   1.767   3.775  0.0511 -0.3827  0.2967
 2178DLPE   D2A24806   9.520   1.968   4.191  0.0082 -0.1578  0.2010
 2178DLPE   D3A24807   9.675   1.769   4.536 -0.2470  0.3192 -0.1110
 2178DLPE   C4A24808   9.728   1.453   4.196  0.2189 -0.2703 -0.2130
 2178DLPE   C1B24809  10.113   1.291   3.837  0.3078  0.0399  0.1224
 2178DLPE   D2B24810   9.875   1.026   4.201 -0.0215  0.0191 -0.3039
 2178DLPE   D3B24811  10.039   1.073   4.599 -0.0115 -0.4738  0.1283
 2178DLPE   C4B24812  10.021   1.376   4.944 -0.0148 -0.1303  0.0369
 2179DLPE   NH324813   7.987  27.103   3.485 -0.4821  0.3884  0.0860
 2179DLPE   PO424814   8.082  27.443   3.348 -0.0479 -0.2705  0.0955
 2179DLPE   GL124815   8.269  27.611   3.706 -0.1588 -0.2063  0.5335
 2179DLPE   GL224816   8.081  27.492   3.878 -0.3536  0.3111 -0.3529
 2179DLPE   C1A24817   8.664  27.573   3.897 -0.3787  0.1176 -0.0828
 2179DLPE   D2A24818   8.730  27.808   4.326 -0.2243 -0.1887  0.2395
 2179DLPE   D3A24819   8.681  28.100   4.700 -0.0224  0.2158  0.2694
 2179DLPE   C4A24820   8.694  28.112   5.235 -0.2502 -0.2534 -0.2210
 2179DLPE   C1B24821   8.259  27.464   4.253 -0.0531 -0.1103 -0.1667
 2179DLPE   D2B24822   8.720  27.270   4.357 -0.6310  0.0427  0.0993
 2179DLPE   D3B24823   8.946  26.923   4.529 -0.0026 -0.0387  0.3887
 2179DLPE   C4B24824   8.985  27.149   4.918  0.2907  0.2335 -0.1080
 2180DLPE   NH324825  25.323  24.964   3.049  0.1701  0.1791  0.0563
 2180DLPE   PO424826  25.071  25.167   3.239 -0.0149  0.0321  0.1532
 2180DLPE   GL124827  25.053  25.257   3.703 -0.0131 -0.0458  0.4621
 2180DLPE   GL224828  25.345  25.352   3.651 -0.2562  0.1616 -0.2892
 2180DLPE   C1A24829  24.991  25.195   4.102  0.0352 -0.1266 -0.0687
 2180DLPE   D2A24830  24.595  25.136   4.447 -0.0439 -0.0009 -0.2769
 2180DLPE   D3A24831  24.424  25.531   4.729 -0.1886 -0.0841  0.1113
 2180DLPE   C4A24832  24.185  25.807   5.038 -0.0772 -0.2132  0.3004
 2180DLPE   C1B24833  25.529  25.536   4.065 -0.3392  0.4072  0.3691
 2180DLPE   D2B24834  25.651  25.290   4.474 -0.0234  0.1877  0.0718
 2180DLPE   D3B24835  25.411  25.262   4.901  0.1755  0.2983 -0.1238
 2180DLPE   C4B24836  25.356  25.632   5.188  0.0144  0.3175 -0.0693
 2181DLPE   NH324837  11.795   9.307   3.591 -0.1286 -0.1674  0.2083
 2181DLPE   PO424838  11.598   9.391   3.875  0.0265  0.0224  0.0803
 2181DLPE   GL124839  11.301   9.464   3.883 -0.0221 -0.1962 -0.0204
 2181DLPE   GL224840  11.171   9.216   4.027  0.0492  0.3665  0.5283
 2181DLPE   C1A24841  11.089   9.675   4.140 -0.1763  0.4138  0.1496
 2181DLPE   D2A24842  10.712   9.965   4.323  0.0890  0.0289 -0.2227
 2181DLPE   D3A24843  10.657  10.092   3.888  0.0321  0.0336 -0.1346
 2181DLPE   C4A24844  10.721   9.693   3.752 -0.0536 -0.0565 -0.1382
 2181DLPE   C1B24845  10.925   9.324   4.418  0.1038 -0.0243 -0.0151
 2181DLPE   D2B24846  10.702   9.662   4.776 -0.0355  0.0263  0.0380
 2181DLPE   D3B24847  10.494  10.077   4.884 -0.0688 -0.0363 -0.1126
 2181DLPE   C4B24848  10.021  10.027   4.957 -0.2201 -0.2390  0.1153
 2182DLPE   NH324849  25.988   1.426   3.747 -0.0886  0.2570 -0.3715
 2182DLPE   PO424850  25.922   1.262   3.464 -0.0979 -0.4070  0.3535
 2182DLPE   GL124851  25.790   0.989   3.685  0.1221  0.2517  0.1147
 2182DLPE   GL224852  25.914   0.735   3.687  0.2736  0.1577 -0.0725
 2182DLPE   C1A24853  25.628   1.162   4.074  0.1921  0.0185  0.0068
 2182DLPE   D2A24854  25.369   1.251   4.462 -0.2881  0.1412 -0.0899
 2182DLPE   D3A24855  25.505   1.573   4.740  0.0312  0.1483  0.0025
 2182DLPE   C4A24856  25.677   1.787   5.125 -0.3621 -0.0145 -0.0741
 2182DLPE   C1B24857  25.835   0.614   4.115 -0.0894  0.0565 -0.0058
 2182DLPE   D2B24858  25.385   0.535   4.283 -0.4387 -0.0807 -0.0672
 2182DLPE   D3B24859  25.154   0.757   4.598 -0.0873 -0.0486  0.0349
 2182DLPE   C4B24860  25.322   0.372   4.826  0.0350 -0.1998  0.2095
 2183DLPE   NH324861  16.399  22.557   3.526 -0.1887  0.0696  0.1796
 2183DLPE   PO424862  16.324  22.813   3.582  0.2199 -0.2357  0.0299
 2183DLPE   GL124863  16.159  22.834   4.010  0.1953 -0.2420 -0.0406
 2183DLPE   GL224864  16.405  22.718   4.091 -0.1550  0.2200  0.0287
 2183DLPE   C1A24865  15.899  22.844   4.428  0.1112 -0.2392 -0.0448
 2183DLPE   D2A24866  15.842  23.052   4.893 -0.0605  0.3363 -0.1043
 2183DLPE   D3A24867  15.752  22.758   5.315  0.1867 -0.2772 -0.0420
 2183DLPE   C4A24868  16.077  22.440   5.405 -0.0743 -0.0363  0.0202
 2183DLPE   C1B24869  16.411  22.935   4.465  0.1242 -0.0697  0.2350
 2183DLPE   D2B24870  16.476  23.084   4.912 -0.1673  0.2767  0.2699
 2183DLPE   D3B24871  16.296  22.894   5.311  0.2402 -0.3426 -0.0145
 2183DLPE   C4B24872  16.732  22.879   5.324 -0.1368  0.0176  0.1082
 2184DLPE   NH324873   0.330  14.938   3.812 -0.0237 -0.0821  0.3752
 2184DLPE   PO424874   0.089  15.155   3.759  0.2710  0.1341  0.2658
 2184DLPE   GL124875   0.172  15.203   4.159  0.0021  0.4133  0.6019
 2184DLPE   GL224876   0.072  14.835   4.157  0.2704  0.2087 -0.1096
 2184DLPE   C1A24877   0.520  15.309   4.356 -0.2056  0.1124  0.0735
 2184DLPE   D2A24878   0.800  15.637   4.669  0.1229  0.0212 -0.1613
 2184DLPE   D3A24879   0.790  16.091   4.541 -0.1546 -0.3102 -0.2792
 2184DLPE   C4A24880   1.093  16.422   4.505 -0.1325 -0.0286  0.0982
 2184DLPE   C1B24881  -0.294  14.772   4.538 -0.0510 -0.2346  0.2525
 2184DLPE   D2B24882  -0.275  14.938   4.998 -0.0409  0.3031  0.0654
 2184DLPE   D3B24883  -0.473  15.138   5.420 -0.2162  0.1686 -0.0970
 2184DLPE   C4B24884  -0.521  14.888   5.843 -0.2268  0.0083  0.1793
 2185DLPE   NH324885   7.983   7.448   2.624  0.0703 -0.2274 -0.1961
 2185DLPE   PO424886   8.020   7.699   2.865  0.0920  0.1940 -0.1867
 2185DLPE   GL124887   7.955   7.499   3.215  0.4044 -0.2861 -0.0440
 2185DLPE   GL224888   8.109   7.266   3.228 -0.1553 -0.5441  0.0409
 2185DLPE   C1A24889   7.855   7.452   3.694 -0.0048  0.1007  0.4736
 2185DLPE   D2A24890   7.895   7.111   4.055  0.0845  0.0379 -0.0144
 2185DLPE   D3A24891   7.758   6.905   4.431  0.0219  0.0528 -0.1612
 2185DLPE   C4A24892   7.721   6.690   4.841 -0.3221  0.1128 -0.3076
 2185DLPE   C1B24893   8.094   7.029   3.589 -0.0620  0.0480 -0.1376
 2185DLPE   D2B24894   8.046   6.696   3.891 -0.1211 -0.0015 -0.3739
 2185DLPE   D3B24895   7.831   6.461   4.214 -0.1413 -0.0251 -0.1156
 2185DLPE   C4B24896   7.828   6.263   4.661 -0.0747 -0.1544  0.3149
 2186DLPE   NH324897   7.528  17.629   3.014  0.1802 -0.1300  0.3273
 2186DLPE   PO424898   7.581  17.925   3.211 -0.0783 -0.2747  0.1063
 2186DLPE   GL124899   7.273  17.723   3.484 -0.1055 -0.2431 -0.1590
 2186DLPE   GL224900   7.516  17.654   3.656 -0.1897 -0.4258  0.1853
 2186DLPE   C1A24901   6.934  17.924   3.735 -0.0747 -0.2752 -0.0492
 2186DLPE   D2A24902   6.673  17.963   4.137  0.0250 -0.3082 -0.2250
 2186DLPE   D3A24903   6.247  18.111   4.322  0.3036  0.3660  0.0865
 2186DLPE   C4A24904   6.295  18.228   3.861  0.0412 -0.1875  0.0722
 2186DLPE   C1B24905   7.273  17.727   4.032 -0.0185 -0.0298  0.0514
 2186DLPE   D2B24906   6.968  17.637   4.360  0.2260  0.3384 -0.0350
 2186DLPE   D3B24907   6.878  17.995   4.660 -0.2323 -0.2436  0.0901
 2186DLPE   C4B24908   6.441  18.164   4.800  0.1418 -0.1403  0.4292
 2187DLPE   NH324909  20.238  11.332   3.022 -0.0239  0.0854  0.1244
 2187DLPE   PO424910  20.175  11.682   3.046 -0.1806 -0.0593  0.2105
 2187DLPE   GL124911  20.225  11.486   3.482  0.1717  0.1358  0.1539
 2187DLPE   GL224912  20.002  11.397   3.415 -0.1651  0.0711  0.2941
 2187DLPE   C1A24913  20.241  11.443   3.928  0.0216  0.2807  0.4807
 2187DLPE   D2A24914  20.164  11.688   4.327  0.0972  0.1601 -0.2288
 2187DLPE   D3A24915  19.867  11.755   4.713 -0.2235 -0.1303  0.3288
 2187DLPE   C4A24916  19.610  11.875   5.086 -0.0506 -0.1161  0.0612
 2187DLPE   C1B24917  20.089  11.067   3.648 -0.1222  0.0825  0.0273
 2187DLPE   D2B24918  20.001  10.589   3.545 -0.2557 -0.1173  0.0928
 2187DLPE   D3B24919  19.577  10.479   3.611  0.1115 -0.0273 -0.0151
 2187DLPE   C4B24920  19.252  10.684   3.948  0.2020 -0.0986  0.0495
 2188DLPE   NH324921   6.830  14.331   3.043  0.0117 -0.2863  0.0565
 2188DLPE   PO424922   6.890  14.042   2.949 -0.0128  0.3203  0.0214
 2188DLPE   GL124923   6.938  14.020   3.349 -0.0002  0.0571 -0.3226
 2188DLPE   GL224924   7.156  13.754   3.253  0.1302  0.3603  0.1936
 2188DLPE   C1A24925   7.111  14.309   3.677 -0.0720  0.2078 -0.1897
 2188DLPE   D2A24926   7.148  14.496   4.138 -0.1078 -0.0413 -0.2153
 2188DLPE   D3A24927   6.903  14.376   4.570  0.1750  0.2341  0.4317
 2188DLPE   C4A24928   7.098  14.137   4.957  0.0901  0.0085 -0.0298
 2188DLPE   C1B24929   7.650  13.691   3.335 -0.2569  0.1137 -0.2680
 2188DLPE   D2B24930   8.116  13.601   3.276  0.2450 -0.0413  0.1380
 2188DLPE   D3B24931   7.933  13.280   3.102 -0.0721  0.2113 -0.1435
 2188DLPE   C4B24932   7.601  13.013   3.392 -0.0377  0.0410 -0.1100
 2189DLPE   NH324933  11.049  23.656   3.637  0.2205 -0.2925 -0.0878
 2189DLPE   PO424934  11.012  23.909   3.395 -0.4804 -0.2698 -0.1621
 2189DLPE   GL124935  11.150  24.078   3.745 -0.2864 -0.1906  0.0449
 2189DLPE   GL224936  11.088  23.966   3.994  0.0160 -0.1979  0.1225
 2189DLPE   C1A24937  11.397  24.442   3.829 -0.0616 -0.0822 -0.2222
 2189DLPE   D2A24938  11.671  24.489   4.322  0.2785  0.1377  0.5188
 2189DLPE   D3A24939  11.920  24.304   4.662 -0.0092  0.3144 -0.0398
 2189DLPE   C4A24940  12.226  24.512   5.021  0.0603 -0.1200  0.0350
 2189DLPE   C1B24941  11.264  24.073   4.351  0.0774 -0.1444  0.0652
 2189DLPE   D2B24942  11.422  24.241   4.787  0.0934  0.3589  0.0612
 2189DLPE   D3B24943  11.414  24.175   5.242 -0.0311  0.2461 -0.1015
 2189DLPE   C4B24944  11.684  23.934   5.614  0.0000 -0.0860  0.3645
 2190DLPE   NH324945  22.666   5.968   3.298  0.0272 -0.0028 -0.1691
 2190DLPE   PO424946  22.350   5.974   3.392 -0.0697 -0.1310  0.1810
 2190DLPE   GL124947  22.505   5.878   3.747  0.1059 -0.1927  0.1589
 2190DLPE   GL224948  22.700   6.060   3.806  0.1931  0.2871  0.0061
 2190DLPE   C1A24949  22.424   5.798   4.184  0.2614 -0.0105 -0.0683
 2190DLPE   D2A24950  22.308   6.037   4.603 -0.1022  0.0527  0.0681
 2190DLPE   D3A24951  22.450   5.909   5.033 -0.1399 -0.1953  0.2928
 2190DLPE   C4A24952  21.976   5.826   4.989  0.1106 -0.0976  0.2470
 2190DLPE   C1B24953  22.503   6.347   4.053  0.1825  0.1187 -0.3711
 2190DLPE   D2B24954  22.402   6.650   4.323 -0.0858 -0.1001 -0.1696
 2190DLPE   D3B24955  22.543   6.839   4.638 -0.1488  0.1547  0.0448
 2190DLPE   C4B24956  22.296   6.946   5.002  0.4170 -0.1193 -0.0512
 2191DLPE   NH324957  22.047  15.251   3.207  0.1880  0.3547  0.3336
 2191DLPE   PO424958  22.130  14.915   3.204 -0.0460 -0.0802  0.0835
 2191DLPE   GL124959  22.307  14.951   3.580  0.0495 -0.2004 -0.0736
 2191DLPE   GL224960  22.355  15.266   3.588  0.1146  0.2374 -0.1466
 2191DLPE   C1A24961  22.362  14.815   4.029  0.1571  0.1724  0.1126
 2191DLPE   D2A24962  22.103  14.784   4.505 -0.1332 -0.2053 -0.1473
 2191DLPE   D3A24963  21.665  14.640   4.449  0.0341  0.0094  0.0107
 2191DLPE   C4A24964  21.293  14.601   4.119  0.1881  0.0648 -0.0509
 2191DLPE   C1B24965  22.250  15.369   3.982 -0.3335 -0.1651  0.0143
 2191DLPE   D2B24966  22.399  15.235   4.441 -0.1375 -0.1944 -0.1719
 2191DLPE   D3B24967  22.732  14.915   4.379 -0.0238 -0.2992 -0.2131
 2191DLPE   C4B24968  22.889  15.076   4.835  0.2006 -0.2153  0.0607
 2192DLPE   NH324969   9.911  26.493   3.451  0.1642 -0.0989 -0.1258
 2192DLPE   PO424970   9.848  26.453   3.761  0.0638 -0.1016 -0.0232
 2192DLPE   GL124971   9.927  26.850   3.829  0.5126 -0.1192  0.1079
 2192DLPE   GL224972   9.595  26.870   3.983 -0.0157  0.5935  0.2341
 2192DLPE   C1A24973  10.137  26.997   4.282  0.1414 -0.1182  0.1288
 2192DLPE   D2A24974  10.440  27.097   4.706  0.2042 -0.1016  0.2973
 2192DLPE   D3A24975  10.566  27.058   5.114  0.1380 -0.1104 -0.1525
 2192DLPE   C4A24976  10.843  26.655   4.959  0.2293  0.2138  0.1526
 2192DLPE   C1B24977   9.574  26.947   4.378 -0.1504  0.1492  0.1954
 2192DLPE   D2B24978   9.472  27.223   4.812  0.3157  0.0351 -0.0924
 2192DLPE   D3B24979   9.503  27.203   5.243  0.3133 -0.0129  0.0624
 2192DLPE   C4B24980   9.070  27.179   5.479 -0.1045  0.0522  0.0717
 2193DLPE   NH324981  26.267   0.006   3.367  0.1576 -0.0564 -0.0080
 2193DLPE   PO424982  26.173   0.329   3.507 -0.1336 -0.1919  0.0996
 2193DLPE   GL124983  26.100   0.273   3.899  0.1283  0.5433 -0.2307
 2193DLPE   GL224984  25.935  -0.016   3.746  0.0032  0.0810  0.3264
 2193DLPE   C1A24985  26.247   0.215   4.317 -0.0626 -0.0552  0.2799
 2193DLPE   D2A24986  26.374   0.345   4.767 -0.1779  0.1511 -0.3583
 2193DLPE   D3A24987  26.418  -0.082   4.905  0.1402 -0.2836  0.0958
 2193DLPE   C4A24988  26.405  -0.434   5.212 -0.2696 -0.1756  0.1641
 2193DLPE   C1B24989  26.216  -0.263   4.006  0.0099 -0.0165  0.2583
 2193DLPE   D2B24990  26.200  -0.262   4.443 -0.3340  0.1126  0.0993
 2193DLPE   D3B24991  26.160  -0.555   4.814  0.0639  0.0209  0.0429
 2193DLPE   C4B24992  26.013  -0.771   5.240 -0.3054 -0.2841  0.0775
 2194DLPE   NH324993  21.932  23.871   3.027  0.1875 -0.1374  0.1255
 2194DLPE   PO424994  22.107  23.589   3.102  0.1814  0.0136 -0.0513
 2194DLPE   GL124995  22.105  23.541   3.454 -0.2686 -0.3376 -0.0459
 2194DLPE   GL224996  21.885  23.370   3.468 -0.0488  0.0023 -0.2954
 2194DLPE   C1A24997  22.234  23.589   3.855 -0.1359  0.0984 -0.1069
 2194DLPE   D2A24998  22.646  23.439   3.990 -0.2828 -0.1010 -0.0575
 2194DLPE   D3A24999  22.492  23.305   4.422  0.3441 -0.2686  0.0279
 2194DLPE   C4A25000  22.250  22.947   4.724 -0.1497 -0.1333 -0.2268
 2194DLPE   C1B25001  21.947  23.052   3.785 -0.2203 -0.1439 -0.1040
 2194DLPE   D2B25002  22.080  22.595   3.883 -0.0006 -0.0654 -0.1942
 2194DLPE   D3B25003  21.954  22.525   4.274 -0.0402  0.0352 -0.1741
 2194DLPE   C4B25004  22.012  22.509   4.778  0.3728  0.0436 -0.1801
 2195DLPE   NH325005  19.502   3.589   3.001 -0.4014  0.2250 -0.2601
 2195DLPE   PO425006  19.589   3.463   3.333 -0.3096  0.0677  0.2534
 2195DLPE   GL125007  19.368   3.475   3.657 -0.0095 -0.3069  0.2519
 2195DLPE   GL225008  19.268   3.724   3.639 -0.2388  0.1026 -0.1692
 2195DLPE   C1A25009  19.580   3.293   4.011 -0.0609  0.1034  0.0828
 2195DLPE   D2A25010  19.967   3.261   4.265 -0.1465 -0.2817 -0.1525
 2195DLPE   D3A25011  20.096   3.346   4.682 -0.0204 -0.0651  0.0422
 2195DLPE   C4A25012  20.256   3.054   4.935  0.0771  0.1436  0.0658
 2195DLPE   C1B25013  19.336   3.926   4.005 -0.2730  0.1361  0.1850
 2195DLPE   D2B25014  19.592   4.140   4.379 -0.2097  0.3166 -0.0702
 2195DLPE   D3B25015  19.939   4.161   4.698  0.1856  0.1638 -0.2538
 2195DLPE   C4B25016  20.323   3.923   4.953  0.3572 -0.0285 -0.0311
 2196DLPE   NH325017  10.778  26.236   3.668  0.3793  0.1940  0.0408
 2196DLPE   PO425018  11.127  26.293   3.757  0.3858  0.1073  0.0353
 2196DLPE   GL125019  11.123  26.434   4.155  0.2250 -0.0684  0.2498
 2196DLPE   GL225020  10.932  26.515   4.310  0.1538 -0.0701  0.1328
 2196DLPE   C1A25021  11.377  26.568   4.404 -0.1229  0.1948 -0.0509
 2196DLPE   D2A25022  11.620  26.466   4.800 -0.3560  0.1341  0.1302
 2196DLPE   D3A25023  11.479  26.591   5.242  0.1171  0.1107 -0.0441
 2196DLPE   C4A25024  11.060  26.567   5.460  0.1094 -0.0041  0.0121
 2196DLPE   C1B25025  10.866  26.870   4.541  0.2435  0.0868 -0.1358
 2196DLPE   D2B25026  10.902  27.285   4.610 -0.1729 -0.2810 -0.1697
 2196DLPE   D3B25027  10.748  27.482   4.930 -0.0900 -0.0853 -0.2555
 2196DLPE   C4B25028  10.568  27.774   4.599  0.1300  0.0659 -0.0148
 2197DLPE   NH325029   3.973  12.766   2.895  0.2591 -0.0682 -0.0412
 2197DLPE   PO425030   4.042  12.942   3.178 -0.2892 -0.0147 -0.0836
 2197DLPE   GL125031   3.902  12.669   3.531 -0.2544 -0.1441  0.3216
 2197DLPE   GL225032   3.753  12.924   3.564 -0.0166  0.1265  0.0857
 2197DLPE   C1A25033   3.803  12.471   3.866  0.1652 -0.0371  0.0385
 2197DLPE   D2A25034   3.564  12.635   4.254  0.0444  0.0326 -0.1271
 2197DLPE   D3A25035   3.825  12.486   4.650  0.2319 -0.0923 -0.0444
 2197DLPE   C4A25036   4.049  12.200   4.343 -0.2044 -0.0022  0.1565
 2197DLPE   C1B25037   3.933  12.922   4.023  0.0426  0.1085  0.0511
 2197DLPE   D2B25038   3.815  13.162   4.446 -0.2028 -0.0553 -0.0959
 2197DLPE   D3B25039   3.643  12.928   4.830  0.1125 -0.2075 -0.5135
 2197DLPE   C4B25040   3.284  12.644   4.742 -0.1228  0.0109 -0.0715
 2198DLPE   NH325041  19.157  22.411   3.522  0.2954  0.1312  0.2054
 2198DLPE   PO425042  19.413  22.468   3.732  0.1888 -0.3527  0.2347
 2198DLPE   GL125043  19.456  22.373   4.208  0.1437 -0.0371 -0.0214
 2198DLPE   GL225044  19.266  22.541   4.235 -0.2931  0.5431 -0.0151
 2198DLPE   C1A25045  19.888  22.523   4.420  0.1205 -0.2697  0.1364
 2198DLPE   D2A25046  20.065  22.539   4.828  0.0541  0.1878  0.0151
 2198DLPE   D3A25047  20.334  22.862   4.932 -0.1383 -0.2174 -0.1279
 2198DLPE   C4A25048  20.695  22.735   5.260  0.0782  0.0156 -0.0617
 2198DLPE   C1B25049  19.213  22.620   4.599 -0.0016 -0.0747  0.1493
 2198DLPE   D2B25050  19.186  22.513   5.077 -0.0717 -0.2628 -0.0651
 2198DLPE   D3B25051  19.590  22.571   4.891  0.0392  0.3651  0.0369
 2198DLPE   C4B25052  19.821  22.941   4.854 -0.3968  0.2598  0.2208
 2199DLPE   NH325053  18.769  15.390   3.008  0.4826  0.0874 -0.3485
 2199DLPE   PO425054  19.086  15.379   3.086  0.0741  0.1102  0.0222
 2199DLPE   GL125055  19.012  15.228   3.456  0.3491  0.1246 -0.4201
 2199DLPE   GL225056  18.978  15.425   3.655  0.2218  0.0929 -0.2819
 2199DLPE   C1A25057  19.038  14.907   3.755 -0.0397  0.0984  0.1286
 2199DLPE   D2A25058  19.278  14.900   4.182  0.0095 -0.1829  0.1915
 2199DLPE   D3A25059  19.240  14.550   4.513 -0.0856 -0.6650 -0.2188
 2199DLPE   C4A25060  19.439  14.142   4.377  0.3951  0.3875 -0.0140
 2199DLPE   C1B25061  19.111  15.357   4.055  0.1764  0.1320 -0.0728
 2199DLPE   D2B25062  19.115  15.177   4.549  0.0757  0.1289  0.1200
 2199DLPE   D3B25063  19.293  14.947   4.929  0.2848 -0.1714 -0.1011
 2199DLPE   C4B25064  18.979  15.224   5.142 -0.1062 -0.0026  0.0128
 2200DLPE   NH325065  20.971  23.891   3.567 -0.0090  0.0213 -0.3572
 2200DLPE   PO425066  20.696  23.780   3.729  0.4062  0.0496 -0.0032
 2200DLPE   GL125067  20.743  23.967   4.094  0.1183 -0.2041 -0.1455
 2200DLPE   GL225068  21.026  23.788   4.009  0.1954 -0.1778  0.1256
 2200DLPE   C1A25069  20.499  24.010   4.516  0.1465 -0.2004  0.4570
 2200DLPE   D2A25070  20.073  23.830   4.814 -0.0160 -0.1465 -0.2059
 2200DLPE   D3A25071  19.830  24.157   4.877 -0.1492 -0.1204 -0.3055
 2200DLPE   C4A25072  19.581  24.154   5.245 -0.1487  0.3094 -0.3283
 2200DLPE   C1B25073  21.024  23.665   4.433  0.0046  0.1235  0.1100
 2200DLPE   D2B25074  21.338  23.592   4.843 -0.0094 -0.2029 -0.0128
 2200DLPE   D3B25075  21.079  23.417   5.200  0.3041 -0.2961  0.0870
 2200DLPE   C4B25076  20.628  23.298   5.352 -0.0534  0.2350  0.2564
 2201DLPE   NH325077   7.608  26.702   3.988 -0.0651 -0.0122  0.0769
 2201DLPE   PO425078   7.804  27.014   3.947  0.0570  0.0152 -0.0287
 2201DLPE   GL125079   7.667  27.237   4.311 -0.2307 -0.2228 -0.0981
 2201DLPE   GL225080   7.853  27.449   4.249  0.2576  0.0503 -0.0734
 2201DLPE   C1A25081   7.492  27.214   4.702 -0.1530 -0.0598  0.0481
 2201DLPE   D2A25082   7.200  27.058   5.112  0.1339 -0.0998 -0.3221
 2201DLPE   D3A25083   7.104  26.705   5.361  0.3367 -0.1390  0.0961
 2201DLPE   C4A25084   7.204  26.268   5.562 -0.0534  0.1411  0.2027
 2201DLPE   C1B25085   7.908  27.453   4.680 -0.0296 -0.0532 -0.0429
 2201DLPE   D2B25086   7.708  27.357   5.140 -0.1038 -0.0107  0.0439
 2201DLPE   D3B25087   7.374  27.555   5.331  0.0290 -0.2196 -0.1239
 2201DLPE   C4B25088   7.309  27.954   5.251 -0.0002 -0.1748 -0.1124
 2202DLPE   NH325089  16.061   8.839   3.187  0.3382 -0.1515 -0.1998
 2202DLPE   PO425090  16.279   8.595   3.082  0.2705 -0.1987  0.1486
 2202DLPE   GL125091  16.374   8.567   3.443  0.1064 -0.1752 -0.2454
 2202DLPE   GL225092  16.582   8.765   3.361 -0.1045 -0.2362  0.1102
 2202DLPE   C1A25093  16.434   8.272   3.763 -0.3237 -0.1894 -0.0961
 2202DLPE   D2A25094  16.619   8.020   4.161 -0.0065  0.0783  0.2887
 2202DLPE   D3A25095  16.961   8.302   4.005  0.0819 -0.2944  0.1362
 2202DLPE   C4A25096  17.446   8.141   4.032 -0.0535 -0.1665  0.0356
 2202DLPE   C1B25097  16.915   8.682   3.659  0.1207 -0.0189  0.2600
 2202DLPE   D2B25098  17.241   8.623   3.925 -0.2637  0.2723 -0.0624
 2202DLPE   D3B25099  17.083   8.594   4.382 -0.0377 -0.0184  0.1115
 2202DLPE   C4B25100  17.064   8.155   4.502  0.0416  0.0118 -0.2691
 2203DLPE   NH325101  14.531   4.358   4.129  0.1380 -0.1367  0.2524
 2203DLPE   PO425102  14.353   4.032   4.044 -0.1340 -0.1087  0.0984
 2203DLPE   GL125103  14.257   3.788   4.338 -0.0222  0.2834 -0.2679
 2203DLPE   GL225104  14.014   3.608   4.351  0.3264 -0.4115 -0.0126
 2203DLPE   C1A25105  14.365   3.641   4.789 -0.0182 -0.0545 -0.2108
 2203DLPE   D2A25106  14.340   3.259   4.500  0.1923 -0.2678 -0.0756
 2203DLPE   D3A25107  14.056   3.242   4.831  0.2174  0.0970  0.4094
 2203DLPE   C4A25108  13.641   3.297   5.058 -0.0301  0.0513  0.0521
 2203DLPE   C1B25109  13.661   3.572   4.636 -0.0735 -0.2568  0.1053
 2203DLPE   D2B25110  13.684   3.789   5.121  0.0744 -0.0571 -0.0540
 2203DLPE   D3B25111  13.994   3.955   5.378 -0.3527  0.1342  0.0145
 2203DLPE   C4B25112  14.125   3.826   5.851 -0.0774  0.2735  0.1347
 2204DLPE   NH325113   9.040   0.973   2.986  0.0768  0.1437  0.0292
 2204DLPE   PO425114   9.301   0.872   3.235  0.3102 -0.1937  0.1593
 2204DLPE   GL125115   9.311   1.025   3.581 -0.0560 -0.0641  0.0024
 2204DLPE   GL225116   9.248   1.282   3.550 -0.1884  0.2336  0.4505
 2204DLPE   C1A25117   9.364   0.804   3.966  0.1511  0.2198  0.0451
 2204DLPE   D2A25118   9.442   0.959   4.512 -0.2169 -0.0683  0.0726
 2204DLPE   D3A25119   9.654   0.916   4.889 -0.1887  0.0149  0.0321
 2204DLPE   C4A25120   9.150   0.889   4.956 -0.0277 -0.0966  0.1539
 2204DLPE   C1B25121   9.236   1.310   3.959 -0.0226  0.0705  0.4329
 2204DLPE   D2B25122   9.264   1.533   4.345 -0.0106  0.0361 -0.2346
 2204DLPE   D3B25123   8.957   1.639   4.674 -0.0063 -0.1409  0.0904
 2204DLPE   C4B25124   8.526   1.454   4.640 -0.0888 -0.0602  0.0177
 2205DLPE   NH325125   2.231  24.197   3.577 -0.2269 -0.2090 -0.1955
 2205DLPE   PO425126   2.160  23.865   3.701  0.0831 -0.1010 -0.0613
 2205DLPE   GL125127   2.062  23.890   4.142 -0.0148 -0.3358 -0.0881
 2205DLPE   GL225128   2.186  24.124   4.177  0.1727  0.1690 -0.2510
 2205DLPE   C1A25129   2.257  23.634   4.432 -0.2073 -0.1504  0.0671
 2205DLPE   D2A25130   2.078  23.364   4.735 -0.0823 -0.0993  0.0866
 2205DLPE   D3A25131   2.247  22.905   4.869  0.0700  0.0503 -0.1966
 2205DLPE   C4A25132   2.238  22.528   5.171 -0.3149 -0.0135 -0.0094
 2205DLPE   C1B25133   2.324  24.358   4.455 -0.0677 -0.1776 -0.1886
 2205DLPE   D2B25134   2.541  24.449   4.915 -0.0635 -0.4906  0.0755
 2205DLPE   D3B25135   2.613  24.444   5.362 -0.1600 -0.1234  0.3219
 2205DLPE   C4B25136   2.765  24.409   5.823 -0.4952 -0.0178  0.3160
 2206DLPE   NH325137   3.815   3.620   3.539  0.0788 -0.0133 -0.1170
 2206DLPE   PO425138   3.755   3.313   3.648 -0.4517 -0.0489 -0.0757
 2206DLPE   GL125139   3.512   3.129   3.981  0.2406 -0.5793 -0.1793
 2206DLPE   GL225140   3.807   3.109   4.098 -0.3234 -0.1802  0.2238
 2206DLPE   C1A25141   3.321   3.300   4.326 -0.4604  0.3084 -0.1822
 2206DLPE   D2A25142   3.266   3.611   4.713 -0.1053  0.0065  0.0415
 2206DLPE   D3A25143   3.306   3.659   5.206 -0.1377  0.0886  0.0965
 2206DLPE   C4A25144   3.396   3.774   5.681 -0.0603  0.0552 -0.0077
 2206DLPE   C1B25145   3.796   3.146   4.509  0.4788 -0.3681  0.3380
 2206DLPE   D2B25146   4.133   3.276   4.854  0.2752 -0.2642  0.0001
 2206DLPE   D3B25147   4.491   3.551   4.987  0.0540  0.0215  0.0738
 2206DLPE   C4B25148   4.426   3.887   5.297 -0.3080  0.1210 -0.1244
 2207DLPE   NH325149  12.094  18.184   3.510 -0.2210  0.1141  0.1581
 2207DLPE   PO425150  12.459  18.119   3.630 -0.0041  0.1837  0.1706
 2207DLPE   GL125151  12.543  18.126   4.027 -0.1748  0.1013  0.0969
 2207DLPE   GL225152  12.279  18.355   4.067 -0.0231  0.1985  0.0947
 2207DLPE   C1A25153  12.374  18.061   4.403  0.2786  0.1196 -0.1673
 2207DLPE   D2A25154  12.166  17.815   4.813  0.0954  0.0137 -0.3831
 2207DLPE   D3A25155  12.242  17.458   5.130  0.2238  0.1443 -0.0668
 2207DLPE   C4A25156  12.182  17.015   5.232  0.0551  0.0988  0.1165
 2207DLPE   C1B25157  12.426  18.685   4.342 -0.0463  0.0039 -0.2475
 2207DLPE   D2B25158  12.353  18.795   4.842  0.0565 -0.3001 -0.0204
 2207DLPE   D3B25159  12.796  18.851   5.052  0.1018  0.2889 -0.1765
 2207DLPE   C4B25160  12.846  19.329   5.003  0.0591 -0.1625  0.0022
 2208DLPE   NH325161   9.078   4.928   3.142  0.2140  0.3658 -0.0442
 2208DLPE   PO425162   9.225   4.632   3.183  0.1481  0.0394 -0.2707
 2208DLPE   GL125163   9.154   4.657   3.537 -0.1618 -0.3012  0.1639
 2208DLPE   GL225164   8.893   4.526   3.566  0.1083 -0.0164  0.1201
 2208DLPE   C1A25165   9.173   5.031   3.779 -0.0302 -0.0277 -0.0549
 2208DLPE   D2A25166   9.249   4.991   4.288 -0.4799  0.0249  0.0783
 2208DLPE   D3A25167   9.554   5.045   4.632 -0.0938  0.0529 -0.0101
 2208DLPE   C4A25168   9.756   5.004   5.091 -0.0017  0.1649 -0.2357
 2208DLPE   C1B25169   8.486   4.601   3.693 -0.1343 -0.1739  0.3330
 2208DLPE   D2B25170   8.331   4.563   4.180  0.0436 -0.1032  0.2575
 2208DLPE   D3B25171   8.360   4.689   4.615 -0.1365  0.0813  0.1876
 2208DLPE   C4B25172   8.754   4.741   4.924 -0.0203 -0.0591  0.1540
 2209DLPE   NH325173  14.181   5.016   3.750 -0.2147 -0.4543 -0.2211
 2209DLPE   PO425174  14.361   5.348   3.649  0.0259  0.1713  0.0709
 2209DLPE   GL125175  14.273   5.666   3.954  0.0458  0.0892  0.1279
 2209DLPE   GL225176  14.098   5.560   4.075 -0.0492 -0.2584  0.0155
 2209DLPE   C1A25177  14.183   6.084   4.080  0.0928  0.0148  0.1388
 2209DLPE   D2A25178  14.300   6.521   4.216 -0.1479 -0.1238  0.1296
 2209DLPE   D3A25179  14.388   6.772   4.525  0.0004  0.1758  0.3825
 2209DLPE   C4A25180  14.669   6.768   4.988 -0.2128  0.0628  0.2193
 2209DLPE   C1B25181  13.761   5.765   4.343 -0.3002 -0.3155  0.1939
 2209DLPE   D2B25182  13.451   5.963   4.768 -0.1969  0.2356 -0.1663
 2209DLPE   D3B25183  13.469   5.718   5.140  0.0780 -0.1703 -0.2093
 2209DLPE   C4B25184  13.865   5.470   5.281  0.1100 -0.0042  0.1374
 2210DLPE   NH325185  25.210  24.084   3.127 -0.1393  0.0830  0.1335
 2210DLPE   PO425186  25.260  24.370   3.332  0.0966 -0.2827 -0.2328
 2210DLPE   GL125187  25.308  24.360   3.788  0.1443 -0.0409  0.0091
 2210DLPE   GL225188  25.433  24.529   3.868 -0.1067 -0.1393  0.1432
 2210DLPE   C1A25189  25.220  24.247   4.157 -0.0747  0.1357  0.1235
 2210DLPE   D2A25190  25.282  23.781   4.441 -0.2025 -0.1690  0.1034
 2210DLPE   D3A25191  25.552  23.467   4.573 -0.0095  0.0373 -0.0532
 2210DLPE   C4A25192  25.925  23.343   4.799  0.1276 -0.1111 -0.0152
 2210DLPE   C1B25193  25.833  24.680   3.902 -0.0259 -0.1407  0.2031
 2210DLPE   D2B25194  25.989  25.014   4.219  0.0315  0.1276  0.2941
 2210DLPE   D3B25195  26.091  25.113   4.637 -0.0663  0.2530  0.1441
 2210DLPE   C4B25196  25.707  24.865   4.774 -0.1437  0.0984  0.0886
 2211DLPE   NH325197  17.883  14.487   3.270 -0.0286  0.3461 -0.3080
 2211DLPE   PO425198  18.150  14.655   3.180 -0.1957  0.2696 -0.2653
 2211DLPE   GL125199  18.327  14.545   3.508 -0.3599  0.2108 -0.2005
 2211DLPE   GL225200  18.215  14.318   3.613  0.2005  0.1053 -0.1151
 2211DLPE   C1A25201  18.747  14.494   3.665 -0.1449 -0.1426  0.1140
 2211DLPE   D2A25202  18.896  14.511   4.169  0.3926  0.0091  0.1014
 2211DLPE   D3A25203  18.741  14.388   4.577 -0.3557 -0.3917  0.2466
 2211DLPE   C4A25204  18.809  14.724   4.935 -0.1282 -0.3521 -0.4718
 2211DLPE   C1B25205  18.436  14.286   3.977  0.0707  0.1731  0.2670
 2211DLPE   D2B25206  18.494  13.874   4.198  0.3304 -0.1174  0.0759
 2211DLPE   D3B25207  18.026  13.886   4.305  0.1380  0.1769  0.0742
 2211DLPE   C4B25208  17.857  13.854   4.791  0.1903  0.2480  0.1909
 2212DLPE   NH325209   6.255  19.625   3.396 -0.1643 -0.1197 -0.2267
 2212DLPE   PO425210   5.953  19.592   3.251 -0.1922  0.1234  0.2250
 2212DLPE   GL125211   5.788  19.487   3.614  0.1979  0.1724  0.4192
 2212DLPE   GL225212   6.050  19.273   3.597  0.4847  0.0262  0.2869
 2212DLPE   C1A25213   5.614  19.268   3.988 -0.4152  0.1098 -0.3576
 2212DLPE   D2A25214   5.418  19.003   4.376 -0.1983  0.0184 -0.0685
 2212DLPE   D3A25215   5.035  18.831   4.567 -0.4752  0.1142  0.0682
 2212DLPE   C4A25216   5.213  18.578   5.052 -0.0699 -0.1513  0.1038
 2212DLPE   C1B25217   6.169  19.374   3.965  0.1397 -0.2151 -0.0146
 2212DLPE   D2B25218   5.887  19.708   4.235 -0.2077  0.0128 -0.0675
 2212DLPE   D3B25219   5.737  19.992   4.602  0.0069  0.1469 -0.2566
 2212DLPE   C4B25220   5.929  20.157   5.030 -0.1616  0.0162  0.4244
 2213DLPE   NH325221   1.757  24.831   3.846  0.1224 -0.0419 -0.1843
 2213DLPE   PO425222   2.100  24.831   3.839  0.1205  0.1798  0.1336
 2213DLPE   GL125223   2.031  24.693   4.281 -0.2123 -0.0440 -0.3060
 2213DLPE   GL225224   1.915  24.967   4.252  0.1398 -0.0233  0.2639
 2213DLPE   C1A25225   1.857  24.434   4.524  0.3337 -0.0503 -0.0199
 2213DLPE   D2A25226   1.526  24.080   4.749 -0.0810  0.0753 -0.4144
 2213DLPE   D3A25227   1.445  23.799   5.105 -0.6096 -0.1203  0.0278
 2213DLPE   C4A25228   0.974  23.696   5.051  0.1056  0.0951  0.0204
 2213DLPE   C1B25229   1.801  25.303   4.433 -0.1737 -0.5691  0.1221
 2213DLPE   D2B25230   1.690  25.687   4.750 -0.0630  0.1972  0.1050
 2213DLPE   D3B25231   1.844  25.949   5.033  0.0086  0.2033 -0.1865
 2213DLPE   C4B25232   1.444  25.716   5.276  0.2854 -0.2505  0.2432
 2214DLPE   NH325233  11.753  13.374   3.563 -0.0865 -0.0245  0.1676
 2214DLPE   PO425234  11.419  13.499   3.616 -0.0275 -0.0686  0.1883
 2214DLPE   GL125235  11.476  13.463   4.036  0.1930  0.0513  0.1223
 2214DLPE   GL225236  11.266  13.273   3.977  0.0245 -0.1212  0.1650
 2214DLPE   C1A25237  11.775  13.239   4.246  0.0990  0.0156  0.1374
 2214DLPE   D2A25238  11.573  12.790   4.329  0.0496  0.4219 -0.0848
 2214DLPE   D3A25239  11.549  12.387   4.464  0.2416  0.0600 -0.0933
 2214DLPE   C4A25240  11.625  12.332   4.011 -0.0028  0.2047  0.0605
 2214DLPE   C1B25241  11.304  13.274   4.464 -0.4112  0.0390  0.0318
 2214DLPE   D2B25242  11.180  13.270   4.953 -0.1860 -0.1153 -0.0881
 2214DLPE   D3B25243  11.260  13.198   5.319 -0.2077  0.0990  0.1821
 2214DLPE   C4B25244  10.894  13.103   5.481 -0.2003 -0.0736 -0.1511
 2215DLPE   NH325245   3.261  26.232   3.394 -0.0405  0.2787 -0.1214
 2215DLPE   PO425246   2.944  26.293   3.494 -0.0657 -0.2633  0.0708
 2215DLPE   GL125247   2.746  26.476   3.815 -0.3625 -0.4364 -0.0653
 2215DLPE   GL225248   2.732  26.218   3.957 -0.0436  0.0152 -0.0290
 2215DLPE   C1A25249   2.848  26.755   4.168  0.0725 -0.0247  0.0427
 2215DLPE   D2A25250   2.722  27.159   4.470  0.2181 -0.2141  0.0903
 2215DLPE   D3A25251   2.485  26.991   4.863 -0.1343  0.0504  0.0526
 2215DLPE   C4A25252   2.442  27.282   5.180  0.2063 -0.0528 -0.0670
 2215DLPE   C1B25253   2.562  26.237   4.367  0.0366 -0.1641  0.2112
 2215DLPE   D2B25254   2.171  26.150   4.764 -0.3977  0.2231  0.0926
 2215DLPE   D3B25255   2.281  26.206   5.237  0.0223  0.2965 -0.1287
 2215DLPE   C4B25256   2.760  26.188   5.286 -0.0922  0.0519  0.0455
 2216DLPE   NH325257  17.452  23.548   3.202  0.0451 -0.1732  0.0313
 2216DLPE   PO425258  17.088  23.539   3.284  0.0552 -0.0942 -0.0282
 2216DLPE   GL125259  17.259  23.728   3.632  0.1171 -0.0992 -0.2389
 2216DLPE   GL225260  17.015  23.809   3.717  0.3916 -0.2810 -0.0434
 2216DLPE   C1A25261  17.345  23.707   4.068 -0.2913  0.2622 -0.0691
 2216DLPE   D2A25262  17.717  23.581   4.393 -0.0525  0.2050  0.0248
 2216DLPE   D3A25263  17.711  23.794   4.767  0.3215 -0.2002 -0.0479
 2216DLPE   C4A25264  17.758  24.286   4.760  0.0941  0.1001 -0.2906
 2216DLPE   C1B25265  16.878  23.495   4.045 -0.2606  0.1571 -0.0191
 2216DLPE   D2B25266  16.470  23.449   4.367  0.3356  0.1609 -0.2876
 2216DLPE   D3B25267  16.574  23.575   4.774 -0.1751 -0.0038 -0.2104
 2216DLPE   C4B25268  16.574  23.476   5.266  0.0991  0.0635  0.0290
 2217DLPE   NH325269   7.409  11.425   3.087 -0.0767 -0.1257  0.2591
 2217DLPE   PO425270   7.175  11.614   3.228  0.0301  0.0535  0.0063
 2217DLPE   GL125271   7.150  11.566   3.654  0.1083 -0.2431  0.2179
 2217DLPE   GL225272   7.286  11.756   3.700  0.0414 -0.1222 -0.0051
 2217DLPE   C1A25273   6.864  11.441   4.024  0.1386  0.1377  0.1155
 2217DLPE   D2A25274   6.434  11.216   4.180 -0.0743 -0.0344  0.0713
 2217DLPE   D3A25275   6.444  11.350   4.564  0.0046  0.0862 -0.0096
 2217DLPE   C4A25276   6.700  11.701   4.443 -0.0606 -0.0988  0.1880
 2217DLPE   C1B25277   7.380  11.904   4.116 -0.1020 -0.0510 -0.1273
 2217DLPE   D2B25278   7.485  12.202   4.491 -0.2221 -0.0322  0.2323
 2217DLPE   D3B25279   7.207  12.156   4.874 -0.4547  0.2623 -0.1665
 2217DLPE   C4B25280   7.719  12.181   4.939 -0.0792 -0.2031 -0.0473
 2218DLPE   NH325281   5.505  26.883   3.917  0.2025 -0.2614 -0.1919
 2218DLPE   PO425282   5.303  27.144   3.921 -0.0727 -0.1773  0.3804
 2218DLPE   GL125283   5.383  27.336   4.252  0.1270  0.0224  0.0802
 2218DLPE   GL225284   5.677  27.269   4.366 -0.1724  0.1375 -0.3629
 2218DLPE   C1A25285   5.093  27.497   4.490 -0.0690  0.2904  0.1749
 2218DLPE   D2A25286   5.232  27.481   4.950  0.2321 -0.0347  0.0534
 2218DLPE   D3A25287   5.189  27.618   5.298 -0.1656 -0.0787 -0.1891
 2218DLPE   C4A25288   5.577  27.870   5.269 -0.1687 -0.0886 -0.1311
 2218DLPE   C1B25289   5.494  27.070   4.727  0.3742 -0.1082  0.0808
 2218DLPE   D2B25290   5.424  26.964   5.156 -0.0433  0.1687  0.0786
 2218DLPE   D3B25291   5.716  26.840   5.469  0.0255 -0.0746 -0.2627
 2218DLPE   C4B25292   5.422  26.805   5.908 -0.1773  0.1075 -0.3061
 2219DLPE   NH325293  11.808   6.720   3.434  0.0184 -0.2279 -0.1026
 2219DLPE   PO425294  11.907   6.413   3.495  0.1628  0.2756 -0.1202
 2219DLPE   GL125295  11.950   6.610   3.902 -0.0937  0.4761  0.0643
 2219DLPE   GL225296  12.123   6.388   4.012 -0.1226  0.0084 -0.0882
 2219DLPE   C1A25297  11.975   6.951   4.090  0.0253 -0.3319  0.0671
 2219DLPE   D2A25298  11.876   7.166   4.495  0.0756  0.3118  0.1963
 2219DLPE   D3A25299  11.965   6.852   4.852  0.1989 -0.0738  0.1636
 2219DLPE   C4A25300  11.990   6.374   4.929  0.1923 -0.2782 -0.0658
 2219DLPE   C1B25301  12.198   6.595   4.388  0.3371  0.1061  0.0137
 2219DLPE   D2B25302  12.420   6.637   4.869 -0.3022  0.3898  0.0135
 2219DLPE   D3B25303  12.232   6.790   5.315 -0.1790  0.3873  0.0279
 2219DLPE   C4B25304  12.168   6.370   5.581  0.0242 -0.2450  0.0119
 2220DLPE   NH325305  12.278   5.487   3.231 -0.1672  0.4750 -0.0137
 2220DLPE   PO425306  11.923   5.433   3.205  0.1230  0.1565  0.0258
 2220DLPE   GL125307  11.916   5.504   3.636 -0.3325  0.0391 -0.0545
 2220DLPE   GL225308  11.630   5.601   3.737  0.0112 -0.2917  0.0702
 2220DLPE   C1A25309  12.075   5.324   4.045 -0.1686 -0.0832 -0.1809
 2220DLPE   D2A25310  11.991   5.422   4.589  0.1070  0.6043  0.0059
 2220DLPE   D3A25311  12.193   5.673   4.920 -0.0540  0.1281 -0.2251
 2220DLPE   C4A25312  12.314   5.318   5.240  0.1661 -0.1041 -0.1403
 2220DLPE   C1B25313  11.616   5.542   4.190  0.2471 -0.0143 -0.2163
 2220DLPE   D2B25314  11.418   5.509   4.621  0.1834  0.2069  0.0162
 2220DLPE   D3B25315  11.559   5.718   5.032  0.5259  0.2209 -0.0604
 2220DLPE   C4B25316  11.430   5.744   5.548 -0.1895 -0.1420 -0.0220
 2221DLPE   NH325317  21.077   2.666   3.316  0.0073 -0.2440  0.2208
 2221DLPE   PO425318  20.876   2.924   3.463  0.1586  0.2054 -0.1381
 2221DLPE   GL125319  20.977   2.868   3.807  0.3557  0.0597  0.0847
 2221DLPE   GL225320  20.849   3.155   3.881 -0.4222 -0.0528  0.2265
 2221DLPE   C1A25321  21.133   2.593   4.052 -0.6560 -0.3918 -0.0331
 2221DLPE   D2A25322  20.840   2.398   4.471 -0.2973  0.3409  0.2124
 2221DLPE   D3A25323  20.948   2.354   4.895 -0.1856  0.0579 -0.2722
 2221DLPE   C4A25324  20.529   2.317   4.967  0.4011 -0.2478 -0.1501
 2221DLPE   C1B25325  21.005   3.459   4.230 -0.0057  0.3185 -0.1616
 2221DLPE   D2B25326  21.340   3.234   4.318  0.0759 -0.2061 -0.0512
 2221DLPE   D3B25327  21.613   3.519   4.482  0.3268 -0.3485 -0.1481
 2221DLPE   C4B25328  21.933   3.715   4.261 -0.0646 -0.2725 -0.1374
 2222DLPE   NH325329  26.319  25.505   3.012  0.4788  0.2286 -0.1552
 2222DLPE   PO425330  26.099  25.394   3.284 -0.1894 -0.1269  0.3296
 2222DLPE   GL125331  25.957  25.689   3.563  0.0363 -0.0032  0.0427
 2222DLPE   GL225332  26.221  25.700   3.685  0.1185 -0.3099 -0.1193
 2222DLPE   C1A25333  25.564  25.933   3.726 -0.0811  0.1000  0.2864
 2222DLPE   D2A25334  25.452  26.298   4.027 -0.2171  0.1719  0.0340
 2222DLPE   D3A25335  25.365  26.272   4.447  0.1019 -0.0217  0.1049
 2222DLPE   C4A25336  25.063  25.984   4.586  0.0684 -0.3123 -0.0394
 2222DLPE   C1B25337  26.465  25.551   4.064 -0.1349  0.0102 -0.0798
 2222DLPE   D2B25338  26.512  25.174   4.313  0.0950  0.1574 -0.1532
 2222DLPE   D3B25339  26.536  25.246   4.754  0.1177  0.2745  0.0251
 2222DLPE   C4B25340  26.364  25.040   5.161 -0.1523 -0.0730  0.2569
 2223DLPE   NH325341  23.496  21.718   3.381 -0.3080 -0.0824 -0.0554
 2223DLPE   PO425342  23.734  21.532   3.606 -0.1549  0.1751  0.1247
 2223DLPE   GL125343  23.589  21.830   3.887  0.3315  0.1305 -0.2483
 2223DLPE   GL225344  23.421  22.016   3.779 -0.1547  0.3475  0.0377
 2223DLPE   C1A25345  23.338  21.743   4.167  0.1849 -0.2539  0.1878
 2223DLPE   D2A25346  23.176  22.007   4.596 -0.0496  0.2917  0.1788
 2223DLPE   D3A25347  23.561  22.185   4.739 -0.1918  0.0611  0.0710
 2223DLPE   C4A25348  23.869  22.510   5.029  0.1031  0.0621 -0.2878
 2223DLPE   C1B25349  23.325  22.310   4.103 -0.0841 -0.0265  0.2169
 2223DLPE   D2B25350  23.364  22.610   4.514  0.0792  0.3261 -0.1557
 2223DLPE   D3B25351  23.273  22.570   4.991 -0.0613  0.3324 -0.0391
 2223DLPE   C4B25352  22.958  22.252   4.910  0.2191 -0.1371  0.0507
 2224DLPE   NH325353  12.842  26.190   3.813  0.1104 -0.2565  0.1766
 2224DLPE   PO425354  12.574  25.989   3.891 -0.2050 -0.2532 -0.1689
 2224DLPE   GL125355  12.506  26.167   4.248 -0.0009  0.0046 -0.0320
 2224DLPE   GL225356  12.813  26.170   4.357  0.0034  0.1429  0.0384
 2224DLPE   C1A25357  12.266  26.365   4.578  0.2759 -0.1290  0.2490
 2224DLPE   D2A25358  12.114  26.504   5.004  0.1924  0.0605 -0.2633
 2224DLPE   D3A25359  11.979  26.648   5.447  0.1098  0.1521  0.1474
 2224DLPE   C4A25360  11.532  26.681   5.717  0.2498  0.0689  0.1024
 2224DLPE   C1B25361  12.905  25.860   4.694 -0.1231  0.0845 -0.3401
 2224DLPE   D2B25362  12.882  25.901   5.140 -0.0196 -0.1506  0.0276
 2224DLPE   D3B25363  12.614  25.809   5.505 -0.0926 -0.0878 -0.1719
 2224DLPE   C4B25364  12.716  25.615   5.959 -0.1474  0.1950  0.0316
 2225DLPE   NH325365  19.881  21.256   3.918  0.4049 -0.4056  0.0057
 2225DLPE   PO425366  19.715  21.560   3.821 -0.0893  0.0232 -0.1007
 2225DLPE   GL125367  19.762  21.724   4.187 -0.1636 -0.0364  0.1007
 2225DLPE   GL225368  19.944  21.575   4.312 -0.2528 -0.0016  0.0313
 2225DLPE   C1A25369  19.384  21.698   4.501 -0.1196 -0.0074  0.0562
 2225DLPE   D2A25370  19.025  21.779   4.851 -0.4076  0.0334  0.3489
 2225DLPE   D3A25371  19.210  21.583   5.140  0.0333  0.2386 -0.0015
 2225DLPE   C4A25372  19.698  21.612   5.225 -0.2677 -0.0971  0.1972
 2225DLPE   C1B25373  19.858  21.610   4.728 -0.1833  0.0333 -0.2262
 2225DLPE   D2B25374  20.142  21.785   5.070 -0.1912 -0.0682  0.0888
 2225DLPE   D3B25375  20.563  21.798   5.279 -0.0096 -0.1517 -0.0200
 2225DLPE   C4B25376  20.865  22.005   4.967  0.1041  0.2087  0.1471
 2226DLPE   NH325377   8.268  26.490   3.391 -0.1152  0.1046 -0.1342
 2226DLPE   PO425378   7.994  26.592   3.586  0.3653 -0.0156 -0.0887
 2226DLPE   GL125379   8.122  26.461   4.029 -0.2650 -0.1082 -0.1239
 2226DLPE   GL225380   8.141  26.710   4.118 -0.1668 -0.2623 -0.1347
 2226DLPE   C1A25381   8.119  26.331   4.506  0.2838 -0.1895  0.0228
 2226DLPE   D2A25382   8.349  25.910   4.676  0.0244 -0.1538  0.1128
 2226DLPE   D3A25383   8.483  25.985   5.077  0.2687  0.2367 -0.0007
 2226DLPE   C4A25384   8.334  26.402   5.276  0.1054 -0.0953  0.2483
 2226DLPE   C1B25385   8.251  26.948   4.402  0.3611  0.2440 -0.0991
 2226DLPE   D2B25386   8.365  27.228   4.773 -0.1942 -0.2670 -0.1810
 2226DLPE   D3B25387   8.657  27.534   4.760  0.3067  0.0345  0.0217
 2226DLPE   C4B25388   8.698  27.586   5.257 -0.0590  0.0083 -0.2373
 2227DLPE   NH325389  15.605  23.846   3.758 -0.0718  0.0095  0.0282
 2227DLPE   PO425390  15.537  23.554   3.543 -0.1727 -0.2072 -0.2457
 2227DLPE   GL125391  15.333  23.470   3.946  0.0528 -0.3901 -0.2322
 2227DLPE   GL225392  15.603  23.303   3.940  0.0033  0.0174  0.3544
 2227DLPE   C1A25393  15.152  23.160   4.208  0.1784 -0.1962 -0.2550
 2227DLPE   D2A25394  15.239  22.970   4.641  0.3050 -0.2564  0.0902
 2227DLPE   D3A25395  15.362  22.928   5.061 -0.2229  0.0190 -0.1428
 2227DLPE   C4A25396  15.511  23.259   5.322  0.1835  0.0631 -0.0749
 2227DLPE   C1B25397  15.561  23.363   4.354  0.1483 -0.2925 -0.1860
 2227DLPE   D2B25398  15.514  23.557   4.868 -0.1000 -0.1094  0.3398
 2227DLPE   D3B25399  15.110  23.443   4.842  0.2723 -0.0002 -0.3252
 2227DLPE   C4B25400  14.858  23.446   5.282 -0.0151  0.4461 -0.1067
 2228DLPE   NH325401  16.177  21.441   3.761 -0.2903 -0.3043 -0.1952
 2228DLPE   PO425402  16.369  21.421   4.025 -0.1396 -0.0342 -0.2394
 2228DLPE   GL125403  16.098  21.347   4.302  0.0595  0.0830 -0.0038
 2228DLPE   GL225404  16.355  21.158   4.356 -0.1350 -0.2607 -0.2425
 2228DLPE   C1A25405  15.814  21.100   4.487  0.0677 -0.0785 -0.0255
 2228DLPE   D2A25406  15.523  20.799   4.762  0.1335  0.0972  0.1429
 2228DLPE   D3A25407  15.606  20.996   5.150  0.1912  0.1212  0.2217
 2228DLPE   C4A25408  15.575  21.458   5.376 -0.1623  0.1572  0.2308
 2228DLPE   C1B25409  16.684  20.876   4.365 -0.0048 -0.1749 -0.1368
 2228DLPE   D2B25410  16.945  20.551   4.683  0.0823 -0.0638  0.0795
 2228DLPE   D3B25411  16.697  20.183   4.960 -0.3140 -0.1708 -0.1338
 2228DLPE   C4B25412  16.646  19.830   5.261 -0.0072  0.1995  0.2661
 2229DLPE   NH325413   0.953   8.452   3.946  0.0491  0.1918 -0.0093
 2229DLPE   PO425414   0.608   8.371   4.032  0.2141 -0.0595  0.1000
 2229DLPE   GL125415   0.550   8.190   4.420 -0.2059 -0.2926  0.1060
 2229DLPE   GL225416   0.720   8.050   4.337  0.0718  0.1120 -0.0639
 2229DLPE   C1A25417   0.635   8.068   4.853  0.0040  0.2989  0.2126
 2229DLPE   D2A25418   0.749   7.997   5.288  0.4064  0.1428 -0.1046
 2229DLPE   D3A25419   0.799   7.993   5.735  0.1836 -0.0973  0.0978
 2229DLPE   C4A25420   0.941   7.811   6.133  0.1797 -0.0727  0.1881
 2229DLPE   C1B25421   1.071   7.966   4.587  0.0215 -0.2494 -0.1722
 2229DLPE   D2B25422   1.223   7.867   5.043  0.1860 -0.0710 -0.0865
 2229DLPE   D3B25423   1.397   7.650   5.380  0.2102 -0.0271  0.1384
 2229DLPE   C4B25424   1.568   7.825   5.849  0.0789 -0.0871 -0.1310
 2230SSM    NC325425   5.131  27.590   4.032  0.2311 -0.1017  0.0315
 2230SSM    PO425426   5.081  27.966   3.894  0.0192  0.0468  0.0465
 2230SSM    OH125427   5.318  28.280   3.950  0.0170  0.3073  0.1037
 2230SSM    AM225428   5.097  28.402   4.102 -0.2184 -0.0435  0.2142
 2230SSM    T1A25429   5.442  28.593   3.869  0.1067 -0.2571  0.1599
 2230SSM    C2A25430   5.549  28.807   4.177 -0.1189 -0.1092 -0.1936
 2230SSM    C3A25431   5.480  28.943   4.687  0.5140 -0.2822 -0.4273
 2230SSM    C4A25432   5.353  28.843   5.143  0.1891  0.1224 -0.0052
 2230SSM    C1B25433   4.928  28.455   4.367 -0.1968  0.0841 -0.1405
 2230SSM    C2B25434   4.846  28.523   4.847 -0.0247  0.2225 -0.2133
 2230SSM    C3B25435   4.840  28.595   5.289  0.0949  0.0573  0.1998
 2230SSM    C4B25436   4.776  28.622   5.766  0.0315 -0.3604 -0.3032
 2231SSM    NC325437   8.704  22.590   3.395  0.2558 -0.3178  0.2449
 2231SSM    PO425438   8.707  22.961   3.477  0.1659  0.2895  0.0521
 2231SSM    OH125439   8.556  23.135   3.819  0.2636 -0.1729  0.2960
 2231SSM    AM225440   8.711  22.937   3.956 -0.0758  0.2275  0.2347
 2231SSM    T1A25441   8.619  23.350   4.095  0.0144 -0.0946  0.2169
 2231SSM    C2A25442   8.712  23.316   4.475 -0.0549  0.2624  0.2373
 2231SSM    C3A25443   8.832  23.359   4.959 -0.0914 -0.0678 -0.2136
 2231SSM    C4A25444   9.133  23.419   5.354  0.1287  0.2600  0.5024
 2231SSM    C1B25445   8.654  22.650   4.217 -0.0149 -0.1047  0.1692
 2231SSM    C2B25446   8.809  22.506   4.652 -0.0485  0.2337  0.1140
 2231SSM    C3B25447   8.701  22.407   5.083  0.1705  0.1448  0.0188
 2231SSM    C4B25448   8.721  22.134   5.496  0.1170 -0.0511  0.1355
 2232SSM    NC325449   0.384  19.906   3.431 -0.1614  0.1257 -0.1426
 2232SSM    PO425450   0.188  20.145   3.652 -0.3079  0.1752 -0.1669
 2232SSM    OH125451   0.223  20.284   3.987 -0.1090  0.1136  0.3868
 2232SSM    AM225452   0.044  20.516   3.983 -0.0571  0.2329  0.1782
 2232SSM    T1A25453   0.186  20.261   4.310  0.1695  0.0814  0.1732
 2232SSM    C2A25454   0.088  20.379   4.659 -0.2298  0.1017  0.1212
 2232SSM    C3A25455  -0.067  20.581   5.033 -0.1753  0.0967 -0.0013
 2232SSM    C4A25456  -0.067  20.768   5.506  0.2508 -0.4682  0.2021
 2232SSM    C1B25457  -0.207  20.634   4.300  0.0264 -0.3774  0.0710
 2232SSM    C2B25458  -0.461  20.495   4.687  0.1242  0.1829 -0.1021
 2232SSM    C3B25459  -0.885  20.556   4.985  0.1122  0.2950 -0.1934
 2232SSM    C4B25460  -1.342  20.626   5.179  0.1660 -0.0879  0.2179
 2233SSM    NC325461  19.201  19.598   3.328  0.3717  0.1525 -0.0395
 2233SSM    PO425462  19.042  19.655   3.682 -0.3464  0.0786  0.0478
 2233SSM    OH125463  19.238  19.630   3.999 -0.3556 -0.0034  0.2126
 2233SSM    AM225464  19.046  19.420   4.088 -0.0104  0.4503  0.1714
 2233SSM    T1A25465  19.368  19.665   4.318  0.2411 -0.1187 -0.3724
 2233SSM    C2A25466  19.428  19.755   4.748  0.1736  0.1042  0.1074
 2233SSM    C3A25467  19.384  19.710   5.230 -0.1560 -0.1337  0.1732
 2233SSM    C4A25468  19.616  19.786   5.654  0.1951  0.1718  0.0773
 2233SSM    C1B25469  18.794  19.306   4.326  0.1412 -0.0147 -0.0406
 2233SSM    C2B25470  18.638  19.174   4.773  0.0482  0.2197 -0.2089
 2233SSM    C3B25471  18.620  19.024   5.196  0.1376  0.1417 -0.3050
 2233SSM    C4B25472  18.438  18.699   5.592  0.0603 -0.3718 -0.0639
 2234SSM    NC325473   6.883  11.893   2.920 -0.4618 -0.0081 -0.0041
 2234SSM    PO425474   6.535  11.757   3.059  0.1637 -0.1832  0.0927
 2234SSM    OH125475   6.560  11.567   3.357 -0.0239  0.2634 -0.1621
 2234SSM    AM225476   6.776  11.748   3.452 -0.0378 -0.2290 -0.0057
 2234SSM    T1A25477   6.522  11.567   3.707 -0.1188  0.3078 -0.1275
 2234SSM    C2A25478   6.402  11.806   3.989  0.0045 -0.1194 -0.0524
 2234SSM    C3A25479   6.218  12.090   4.303  0.1735  0.1379  0.0558
 2234SSM    C4A25480   6.173  12.357   4.682 -0.1140  0.0074 -0.2412
 2234SSM    C1B25481   6.847  11.904   3.772  0.1286 -0.0743  0.3317
 2234SSM    C2B25482   6.788  12.176   4.191  0.1419 -0.3237 -0.0680
 2234SSM    C3B25483   6.664  12.260   4.662 -0.1271  0.4574 -0.0764
 2234SSM    C4B25484   6.785  12.364   5.070 -0.0037  0.3704  0.0251
 2235SSM    NC325485   4.283   2.567   3.416 -0.0758  0.1832  0.1266
 2235SSM    PO425486   3.894   2.574   3.343  0.1484  0.0116  0.1912
 2235SSM    OH125487   3.748   2.316   3.578 -0.2681 -0.2351  0.0955
 2235SSM    AM225488   3.913   2.427   3.810 -0.0556  0.0850 -0.0984
 2235SSM    T1A25489   3.776   2.039   3.783 -0.0270  0.0142  0.2335
 2235SSM    C2A25490   3.675   1.805   4.043  0.0481 -0.0985 -0.4984
 2235SSM    C3A25491   3.592   1.723   4.511 -0.1043  0.2381  0.2426
 2235SSM    C4A25492   3.549   1.517   4.949 -0.0448 -0.1729  0.1320
 2235SSM    C1B25493   3.878   2.612   4.144  0.1531 -0.2274  0.1091
 2235SSM    C2B25494   3.993   2.646   4.616  0.2315  0.2045  0.1233
 2235SSM    C3B25495   4.129   2.824   5.014 -0.0770 -0.0394 -0.0936
 2235SSM    C4B25496   3.933   2.919   5.446  0.0111  0.1825 -0.3003
 2236SSM    NC325497  16.345  11.863   3.423 -0.0166 -0.2000  0.0725
 2236SSM    PO425498  16.150  11.539   3.270 -0.1188  0.0134  0.3443
 2236SSM    OH125499  16.240  11.241   3.518  0.1668 -0.0460  0.2214
 2236SSM    AM225500  15.961  11.158   3.551 -0.2799 -0.2464  0.2147
 2236SSM    T1A25501  16.309  11.019   3.758 -0.1317  0.3624 -0.1489
 2236SSM    C2A25502  16.404  10.949   4.155 -0.0989 -0.1515  0.3199
 2236SSM    C3A25503  16.469  10.996   4.575  0.1772  0.0865 -0.0587
 2236SSM    C4A25504  16.571  11.038   4.995  0.0077  0.0361  0.0698
 2236SSM    C1B25505  15.623  11.265   3.782 -0.0630  0.1236 -0.2039
 2236SSM    C2B25506  15.532  11.397   4.294  0.3189 -0.0024  0.1030
 2236SSM    C3B25507  15.439  11.386   4.792  0.1362  0.1859  0.2517
 2236SSM    C4B25508  15.534  11.374   5.229 -0.2355 -0.0046 -0.1203
 2237SSM    NC325509   6.121  22.977   3.725 -0.0035 -0.0393 -0.0153
 2237SSM    PO425510   6.150  22.563   3.817  0.2110  0.3025 -0.1400
 2237SSM    OH125511   6.187  22.542   4.198 -0.2833 -0.0965  0.1520
 2237SSM    AM225512   6.297  22.264   4.234  0.0112  0.1449  0.0625
 2237SSM    T1A25513   6.178  22.646   4.518  0.2822 -0.2973  0.0257
 2237SSM    C2A25514   6.183  22.806   4.867  0.2232 -0.0726 -0.1773
 2237SSM    C3A25515   6.332  22.710   5.322  0.0877  0.0563  0.0496
 2237SSM    C4A25516   6.464  22.878   5.721 -0.0943 -0.0800  0.0480
 2237SSM    C1B25517   6.386  22.214   4.617 -0.1515  0.0291 -0.1707
 2237SSM    C2B25518   6.477  22.255   5.183  0.0713  0.3416 -0.1509
 2237SSM    C3B25519   6.627  22.342   5.666 -0.1435 -0.2066 -0.0259
 2237SSM    C4B25520   6.775  22.580   6.036 -0.2046 -0.0045 -0.0758
 2238SSM    NC325521  27.072   0.277   3.515  0.0311  0.1115  0.2454
 2238SSM    PO425522  26.794  -0.006   3.393 -0.1035  0.2238  0.3332
 2238SSM    OH125523  26.637  -0.170   3.652 -0.0412 -0.1570 -0.1530
 2238SSM    AM225524  26.477   0.071   3.765 -0.2052  0.3238  0.2188
 2238SSM    T1A25525  26.679  -0.283   3.964 -0.1018  0.0646  0.2043
 2238SSM    C2A25526  26.685  -0.121   4.298  0.1396  0.1110 -0.0614
 2238SSM    C3A25527  26.870  -0.002   4.702 -0.1990 -0.2526  0.1318
 2238SSM    C4A25528  26.844   0.207   5.123 -0.3481 -0.1838  0.1213
 2238SSM    C1B25529  26.590   0.348   3.943  0.1527  0.1939 -0.0831
 2238SSM    C2B25530  26.717   0.564   4.393  0.0565 -0.0710 -0.0583
 2238SSM    C3B25531  26.765   0.633   4.837 -0.1789  0.1489  0.1131
 2238SSM    C4B25532  26.669   0.855   5.234 -0.0413  0.0738  0.1814
 2239SSM    NC325533  14.658   8.967   3.571 -0.4711 -0.3373  0.1003
 2239SSM    PO425534  14.890   8.638   3.538  0.0744 -0.3825 -0.0706
 2239SSM    OH125535  15.245   8.601   3.683  0.2286 -0.0944 -0.0271
 2239SSM    AM225536  15.175   8.319   3.815  0.1163 -0.1080  0.0545
 2239SSM    T1A25537  15.522   8.577   3.893  0.0024 -0.4354  0.1906
 2239SSM    C2A25538  15.533   8.369   4.192  0.1047  0.4530  0.0372
 2239SSM    C3A25539  15.680   8.276   4.623 -0.1656 -0.1092  0.1286
 2239SSM    C4A25540  16.131   8.180   4.818  0.0776 -0.0271 -0.0447
 2239SSM    C1B25541  15.093   8.133   4.161  0.1894  0.4381 -0.0561
 2239SSM    C2B25542  15.110   8.197   4.648  0.0181  0.1323  0.0068
 2239SSM    C3B25543  14.869   8.268   5.034 -0.1008 -0.3104 -0.2328
 2239SSM    C4B25544  14.656   8.222   5.435 -0.2456  0.0502  0.1966
 2240SSM    NC325545   2.377  22.055   3.860  0.2058 -0.0958 -0.0427
 2240SSM    PO425546   2.742  22.163   3.732  0.1008  0.0423 -0.0539
 2240SSM    OH125547   2.867  22.292   4.075  0.0240  0.2459  0.2798
 2240SSM    AM225548   2.596  22.236   4.198  0.1612 -0.0707  0.2112
 2240SSM    T1A25549   3.007  22.417   4.355 -0.0692  0.1841  0.2813
 2240SSM    C2A25550   3.252  22.400   4.633  0.0310 -0.2374  0.0723
 2240SSM    C3A25551   3.561  22.367   5.050 -0.0310  0.1377  0.0629
 2240SSM    C4A25552   3.901  22.250   5.387 -0.1635  0.2230  0.1856
 2240SSM    C1B25553   2.387  22.092   4.543 -0.0559 -0.1378 -0.0509
 2240SSM    C2B25554   2.137  22.071   5.000 -0.2300  0.2061  0.2794
 2240SSM    C3B25555   1.731  22.071   5.169  0.1712  0.0528 -0.0043
 2240SSM    C4B25556   1.306  21.920   5.265  0.0255  0.0657 -0.3652
 2241SSM    NC325557   4.411  23.946   3.779  0.1858  0.1431 -0.2559
 2241SSM    PO425558   4.279  23.584   3.665 -0.2759 -0.0769  0.1335
 2241SSM    OH125559   4.403  23.563   4.028 -0.4814 -0.1157  0.2651
 2241SSM    AM225560   4.201  23.720   4.149 -0.0337  0.2617 -0.3091
 2241SSM    T1A25561   4.551  23.528   4.342 -0.2764 -0.0276  0.2099
 2241SSM    C2A25562   4.568  23.405   4.787 -0.2099 -0.1200 -0.0433
 2241SSM    C3A25563   4.656  23.210   5.191 -0.1144  0.2041 -0.2871
 2241SSM    C4A25564   4.854  22.947   5.570 -0.0286 -0.1095  0.1453
 2241SSM    C1B25565   3.972  23.730   4.502 -0.1011 -0.0557  0.1387
 2241SSM    C2B25566   3.918  23.599   4.985  0.0440 -0.2987 -0.1192
 2241SSM    C3B25567   3.673  23.498   5.380  0.0993 -0.2098  0.1998
 2241SSM    C4B25568   3.624  23.508   5.865 -0.0199  0.2418  0.0289
 2242SSM    NC325569   0.431   3.218   3.562 -0.0949 -0.0716  0.1932
 2242SSM    PO425570   0.141   2.977   3.483 -0.3956 -0.1369 -0.2296
 2242SSM    OH125571   0.233   2.687   3.714  0.1097  0.0324 -0.0682
 2242SSM    AM225572   0.501   2.817   3.798 -0.0791  0.2226  0.3374
 2242SSM    T1A25573   0.158   2.590   4.043 -0.0742  0.2897 -0.2868
 2242SSM    C2A25574   0.173   2.855   4.288 -0.3376 -0.1576  0.1173
 2242SSM    C3A25575   0.274   3.022   4.765 -0.4604  0.1464 -0.1682
 2242SSM    C4A25576   0.290   3.194   5.248 -0.4264 -0.2838 -0.0108
 2242SSM    C1B25577   0.713   2.794   4.171 -0.1020 -0.2850 -0.0418
 2242SSM    C2B25578   0.800   2.745   4.683 -0.5013  0.2554 -0.1695
 2242SSM    C3B25579   0.583   2.823   5.102 -0.0781  0.1271  0.1336
 2242SSM    C4B25580   0.526   2.888   5.570 -0.0145  0.3249  0.0118
 2243SSM    NC325581  23.287   5.582   3.507 -0.1191  0.0007  0.0129
 2243SSM    PO425582  22.944   5.711   3.662 -0.0226 -0.0623 -0.1137
 2243SSM    OH125583  22.908   5.753   4.001 -0.1865  0.1342  0.0977
 2243SSM    AM225584  23.162   5.594   4.104  0.2140  0.3031  0.3237
 2243SSM    T1A25585  22.843   6.014   4.247 -0.0995  0.2706  0.4217
 2243SSM    C2A25586  22.772   6.173   4.562  0.3685 -0.1485  0.0107
 2243SSM    C3A25587  22.487   6.404   4.886 -0.1052  0.0807  0.2635
 2243SSM    C4A25588  22.448   6.548   5.353 -0.0089  0.1642  0.0758
 2243SSM    C1B25589  23.181   5.229   4.281  0.1314 -0.2195  0.0828
 2243SSM    C2B25590  23.145   5.226   4.757 -0.2196 -0.0042 -0.1369
 2243SSM    C3B25591  23.158   5.131   5.250 -0.0083 -0.0887  0.3856
 2243SSM    C4B25592  23.195   4.883   5.676 -0.4438 -0.2669  0.0235
 2244SSM    NC325593  19.681   8.396   3.526  0.3255  0.0905  0.0368
 2244SSM    PO425594  19.955   8.237   3.245  0.0478 -0.1293  0.0060
 2244SSM    OH125595  20.044   7.954   3.390  0.5541  0.1580  0.1584
 2244SSM    AM225596  20.184   8.028   3.640 -0.1656 -0.2790 -0.0189
 2244SSM    T1A25597  19.942   7.661   3.557 -0.2063  0.2363 -0.0430
 2244SSM    C2A25598  19.842   7.515   3.954  0.2750 -0.0318  0.1783
 2244SSM    C3A25599  19.766   7.710   4.347  0.0657  0.1904  0.2978
 2244SSM    C4A25600  19.584   8.134   4.416 -0.1225  0.1241  0.0966
 2244SSM    C1B25601  20.213   7.874   3.962 -0.0131  0.2649  0.0095
 2244SSM    C2B25602  20.372   7.724   4.453 -0.1043 -0.0886 -0.0964
 2244SSM    C3B25603  20.360   7.414   4.891 -0.1343  0.0292  0.0262
 2244SSM    C4B25604  20.590   7.383   5.260 -0.1719  0.1327 -0.0027
 2245SSM    NC325605   8.249  11.721   3.650 -0.0293  0.1700 -0.1251
 2245SSM    PO425606   8.415  11.511   3.358 -0.1861 -0.0693 -0.1403
 2245SSM    OH125607   8.219  11.195   3.531 -0.1440  0.1077  0.1337
 2245SSM    AM225608   8.377  11.216   3.794 -0.3237  0.0122  0.1237
 2245SSM    T1A25609   7.966  11.083   3.720 -0.2673 -0.2831 -0.0598
 2245SSM    C2A25610   7.820  11.115   4.089  0.3305 -0.3476 -0.4375
 2245SSM    C3A25611   7.600  10.983   4.510  0.2903  0.3241  0.0528
 2245SSM    C4A25612   7.549  10.558   4.853 -0.3039  0.3505 -0.1991
 2245SSM    C1B25613   8.285  11.254   4.090 -0.2369  0.0038 -0.0551
 2245SSM    C2B25614   7.992  11.332   4.552 -0.0798  0.1907  0.1298
 2245SSM    C3B25615   7.683  11.333   4.933 -0.1740  0.1826  0.2575
 2245SSM    C4B25616   7.357  11.108   4.918 -0.2409 -0.0571 -0.2272
 2246SSM    NC325617   5.440  14.418   2.987 -0.0554 -0.0870 -0.0531
 2246SSM    PO425618   5.054  14.485   2.992  0.0610  0.0405  0.0383
 2246SSM    OH125619   4.959  14.225   3.260  0.2791 -0.1141  0.0312
 2246SSM    AM225620   4.976  14.440   3.468  0.1247 -0.0198 -0.0378
 2246SSM    T1A25621   5.081  13.987   3.506 -0.0466  0.3581  0.1355
 2246SSM    C2A25622   5.110  13.671   3.717  0.6820 -0.2427  0.1897
 2246SSM    C3A25623   5.282  13.633   4.126 -0.1717  0.0371  0.0915
 2246SSM    C4A25624   5.510  13.713   4.587  0.1667 -0.1324 -0.3481
 2246SSM    C1B25625   5.018  14.431   3.897 -0.3133  0.0674 -0.3037
 2246SSM    C2B25626   5.139  14.417   4.348  0.1176  0.0343 -0.0564
 2246SSM    C3B25627   5.290  14.386   4.809 -0.2816  0.3522  0.1787
 2246SSM    C4B25628   5.490  14.183   5.202  0.1660 -0.1764  0.1304
 2247SSM    NC325629   6.671  24.983   3.870  0.2125  0.0504  0.0760
 2247SSM    PO425630   6.361  24.732   3.857 -0.1118 -0.0207  0.2842
 2247SSM    OH125631   6.348  24.779   4.239 -0.2368 -0.0357 -0.2352
 2247SSM    AM225632   6.614  24.663   4.249 -0.2136 -0.3428  0.3384
 2247SSM    T1A25633   6.315  24.676   4.561 -0.1716  0.0791 -0.3958
 2247SSM    C2A25634   6.136  24.577   4.917  0.0580 -0.0114  0.2607
 2247SSM    C3A25635   6.046  24.427   5.395 -0.1863 -0.3189 -0.1139
 2247SSM    C4A25636   5.989  24.260   5.837  0.0216 -0.1012 -0.0263
 2247SSM    C1B25637   6.901  24.566   4.473 -0.0822 -0.1955  0.0342
 2247SSM    C2B25638   7.216  24.591   4.854 -0.0809  0.1358  0.0927
 2247SSM    C3B25639   7.584  24.414   4.922 -0.0556  0.0302 -0.0030
 2247SSM    C4B25640   7.419  24.183   5.260 -0.4599 -0.1626 -0.0823
 2248SSM    NC325641  10.135  17.047   2.881  0.0438 -0.1093 -0.0824
 2248SSM    PO425642   9.914  17.130   3.208  0.2851 -0.0777  0.0417
 2248SSM    OH125643  10.066  17.229   3.538 -0.4297 -0.2391 -0.2545
 2248SSM    AM225644  10.324  17.088   3.435  0.2539 -0.1510 -0.2930
 2248SSM    T1A25645  10.157  17.198   3.845 -0.0480  0.2005  0.1532
 2248SSM    C2A25646   9.970  17.395   4.112 -0.6450 -0.0508 -0.1889
 2248SSM    C3A25647   9.879  17.470   4.573  0.1157  0.2652 -0.0249
 2248SSM    C4A25648   9.812  17.596   5.037 -0.1512 -0.1033 -0.2698
 2248SSM    C1B25649  10.560  16.875   3.509 -0.4201  0.1127 -0.1122
 2248SSM    C2B25650  10.972  16.722   3.908  0.1124  0.0563 -0.2337
 2248SSM    C3B25651  11.364  16.591   4.240  0.5235 -0.3048 -0.0516
 2248SSM    C4B25652  11.482  16.232   4.456 -0.2282  0.2560  0.2987
 2249SSM    NC325653  22.489  10.169   3.498 -0.0456 -0.3251 -0.0343
 2249SSM    PO425654  22.476   9.796   3.701 -0.0883  0.0446 -0.0506
 2249SSM    OH125655  22.555   9.672   4.056  0.1988  0.0107  0.0073
 2249SSM    AM225656  22.766   9.896   4.082 -0.0010  0.4200 -0.0763
 2249SSM    T1A25657  22.521   9.572   4.367 -0.3430 -0.1620 -0.4748
 2249SSM    C2A25658  22.520   9.524   4.762  0.1145 -0.0419  0.0782
 2249SSM    C3A25659  22.512   9.440   5.291  0.0519  0.4406  0.0397
 2249SSM    C4A25660  22.798   9.185   5.595 -0.0518  0.1772 -0.2592
 2249SSM    C1B25661  22.884  10.185   4.253  0.6093  0.2923  0.1333
 2249SSM    C2B25662  22.854  10.292   4.754 -0.3519  0.0728  0.2553
 2249SSM    C3B25663  22.908  10.288   5.323 -0.0525 -0.0848  0.3313
 2249SSM    C4B25664  23.016  10.524   5.731 -0.0825 -0.2687  0.3607
 2250SSM    NC325665   0.916  19.384   3.942 -0.1636 -0.0506 -0.4121
 2250SSM    PO425666   0.978  19.755   3.854 -0.0838  0.0274  0.0349
 2250SSM    OH125667   0.961  19.874   4.186 -0.0006 -0.1869 -0.1785
 2250SSM    AM225668   0.775  19.660   4.305 -0.3601  0.3603 -0.0216
 2250SSM    T1A25669   1.060  19.890   4.492  0.2285 -0.2277  0.0478
 2250SSM    C2A25670   1.066  19.819   4.881  0.0659 -0.1103  0.1702
 2250SSM    C3A25671   1.071  19.732   5.389  0.0839 -0.4955  0.3122
 2250SSM    C4A25672   1.064  19.628   5.909  0.2455  0.0807  0.1683
 2250SSM    C1B25673   0.702  19.578   4.619 -0.0500 -0.3110 -0.1163
 2250SSM    C2B25674   0.602  19.590   5.108 -0.3425 -0.0752 -0.1450
 2250SSM    C3B25675   0.634  19.670   5.570  0.1491  0.2919  0.1003
 2250SSM    C4B25676   0.635  19.877   6.024 -0.2665  0.0063 -0.0337
 2251SSM    NC325677  20.255  15.326   3.176 -0.2148  0.3286  0.2706
 2251SSM    PO425678  20.572  15.051   3.135  0.1055  0.0318  0.0230
 2251SSM    OH125679  20.711  15.131   3.474  0.2307 -0.0980  0.2505
 2251SSM    AM225680  20.438  15.085   3.595  0.1074 -0.0954 -0.2780
 2251SSM    T1A25681  20.753  15.223   3.818 -0.2878 -0.3094  0.0565
 2251SSM    C2A25682  20.759  15.239   4.243 -0.1106  0.2533  0.1806
 2251SSM    C3A25683  20.697  15.190   4.696 -0.0066 -0.1221 -0.0246
 2251SSM    C4A25684  20.330  15.336   5.013 -0.0226  0.0492 -0.0677
 2251SSM    C1B25685  20.333  15.075   3.968 -0.3346 -0.2933  0.3000
 2251SSM    C2B25686  20.274  14.792   4.369  0.1618  0.0374 -0.0796
 2251SSM    C3B25687  20.115  14.498   4.675  0.4154  0.0834 -0.1882
 2251SSM    C4B25688  20.079  14.240   5.019 -0.0694  0.0456  0.0955
 2252SSM    NC325689   7.754  22.753   3.595 -0.1275 -0.0347 -0.2103
 2252SSM    PO425690   7.582  23.075   3.659 -0.1099  0.0154 -0.0484
 2252SSM    OH125691   7.668  23.134   4.010 -0.0844 -0.0161  0.0495
 2252SSM    AM225692   7.954  23.099   3.953  0.2035 -0.4982 -0.0159
 2252SSM    T1A25693   7.732  23.018   4.324 -0.1941 -0.0463 -0.4051
 2252SSM    C2A25694   7.950  23.021   4.695 -0.0510  0.1443 -0.0223
 2252SSM    C3A25695   8.214  22.962   5.052 -0.1762  0.0652  0.0522
 2252SSM    C4A25696   8.613  23.030   5.265 -0.0126 -0.0389  0.1691
 2252SSM    C1B25697   8.229  23.059   4.160  0.0531  0.1019 -0.2172
 2252SSM    C2B25698   8.409  22.918   4.589 -0.2585 -0.1567  0.0162
 2252SSM    C3B25699   8.823  22.923   4.815 -0.2043  0.3344 -0.1143
 2252SSM    C4B25700   9.061  22.794   5.209 -0.2556 -0.1374  0.1403
 2253SSM    NC325701   2.762  20.794   3.500  0.0040 -0.2808  0.0994
 2253SSM    PO425702   2.433  20.964   3.585 -0.0703 -0.0376  0.0080
 2253SSM    OH125703   2.420  20.976   3.938  0.2848  0.2187  0.3442
 2253SSM    AM225704   2.142  21.073   3.998  0.3088 -0.2048  0.0196
 2253SSM    T1A25705   2.452  20.982   4.270  0.2157  0.1404 -0.3417
 2253SSM    C2A25706   2.467  21.138   4.653 -0.0254 -0.2072 -0.3507
 2253SSM    C3A25707   2.384  21.321   5.034  0.0152 -0.1190 -0.1040
 2253SSM    C4A25708   2.380  21.730   5.380  0.1210  0.0387 -0.2406
 2253SSM    C1B25709   1.956  21.187   4.378  0.1540  0.0023  0.0371
 2253SSM    C2B25710   1.912  21.164   4.871  0.0173 -0.2741  0.2723
 2253SSM    C3B25711   1.874  21.218   5.357  0.1204 -0.0132  0.0906
 2253SSM    C4B25712   1.591  21.004   5.667  0.2050  0.0098 -0.2766
 2254SSM    NC325713  15.476   7.624   3.349 -0.0568 -0.0845 -0.0979
 2254SSM    PO425714  15.510   8.012   3.286 -0.0093  0.0623  0.2552
 2254SSM    OH125715  15.442   8.001   3.645  0.1292 -0.3774 -0.1108
 2254SSM    AM225716  15.615   8.198   3.775 -0.1180 -0.3172 -0.1428
 2254SSM    T1A25717  15.321   7.846   3.929  0.0163  0.1441  0.2391
 2254SSM    C2A25718  15.190   7.672   4.244 -0.0745  0.0689  0.1285
 2254SSM    C3A25719  15.279   7.518   4.701  0.0811  0.0095  0.0077
 2254SSM    C4A25720  15.086   7.573   5.133  0.0733 -0.1918  0.2079
 2254SSM    C1B25721  15.912   8.283   3.951 -0.0424 -0.2075 -0.2138
 2254SSM    C2B25722  15.932   8.613   4.345 -0.0869  0.0369  0.0191
 2254SSM    C3B25723  15.839   8.726   4.780 -0.1640 -0.1596  0.0721
 2254SSM    C4B25724  15.771   8.906   5.190 -0.0959 -0.2106  0.0285
 2255SSM    NC325725   2.188  21.339   3.448  0.1583 -0.1345 -0.3740
 2255SSM    PO425726   2.391  21.442   3.786  0.3691  0.1068  0.0666
 2255SSM    OH125727   2.513  21.405   4.091 -0.4094 -0.1657  0.0702
 2255SSM    AM225728   2.266  21.450   4.272 -0.0745 -0.4438  0.2201
 2255SSM    T1A25729   2.738  21.359   4.357 -0.2050  0.0158  0.0897
 2255SSM    C2A25730   2.757  21.500   4.705 -0.2163  0.1106  0.1414
 2255SSM    C3A25731   2.906  21.597   5.116 -0.0983  0.0670 -0.0214
 2255SSM    C4A25732   2.888  21.783   5.580 -0.1017  0.0553 -0.0918
 2255SSM    C1B25733   2.151  21.585   4.556 -0.0968  0.0776 -0.2473
 2255SSM    C2B25734   1.896  21.646   4.983  0.1463  0.2265 -0.1980
 2255SSM    C3B25735   1.861  21.732   5.480  0.0206 -0.0978  0.0735
 2255SSM    C4B25736   2.188  21.714   5.807 -0.3724  0.3401  0.1845
 2256SSM    NC325737  23.364  12.347   3.215 -0.0400 -0.1436 -0.0560
 2256SSM    PO425738  23.549  12.036   3.340 -0.1283 -0.1541  0.0979
 2256SSM    OH125739  23.327  11.865   3.641 -0.4300 -0.0145 -0.0649
 2256SSM    AM225740  23.323  12.147   3.804  0.3041 -0.0639  0.2288
 2256SSM    T1A25741  23.213  11.726   3.919 -0.3519  0.2481 -0.3217
 2256SSM    C2A25742  22.946  11.766   4.219 -0.1173 -0.3456 -0.1274
 2256SSM    C3A25743  22.548  11.567   4.326  0.0401 -0.1069  0.2919
 2256SSM    C4A25744  22.742  11.725   4.719  0.1047 -0.0490 -0.0233
 2256SSM    C1B25745  23.232  12.163   4.205  0.0457  0.0667 -0.0606
 2256SSM    C2B25746  23.132  12.020   4.727  0.3314  0.3710  0.0767
 2256SSM    C3B25747  22.980  11.829   5.150  0.0494  0.1622  0.0126
 2256SSM    C4B25748  22.768  11.753   5.575  0.0193  0.2033 -0.1376
 2257SSM    NC325749  23.736   6.368   3.321 -0.0772 -0.3620 -0.3176
 2257SSM    PO425750  23.978   6.341   3.639 -0.2800  0.1241 -0.2280
 2257SSM    OH125751  23.891   6.596   3.963  0.1808 -0.1839 -0.1264
 2257SSM    AM225752  24.195   6.635   3.988 -0.1248 -0.3804  0.0711
 2257SSM    T1A25753  23.922   6.754   4.288 -0.0689 -0.0148  0.2430
 2257SSM    C2A25754  24.071   6.779   4.680 -0.4861 -0.0003  0.2104
 2257SSM    C3A25755  23.900   6.862   5.140 -0.1443 -0.0541 -0.0052
 2257SSM    C4A25756  23.794   7.157   5.560  0.0095 -0.0444  0.1217
 2257SSM    C1B25757  24.459   6.706   4.223 -0.1063 -0.1137  0.0299
 2257SSM    C2B25758  24.646   6.696   4.638 -0.0787 -0.0682  0.1624
 2257SSM    C3B25759  24.485   6.717   5.129 -0.1083  0.0494 -0.0890
 2257SSM    C4B25760  24.450   6.959   5.564  0.0441 -0.0579  0.3066
 2258SSM    NC325761  10.433   5.403   3.236  0.1604 -0.2077  0.1992
 2258SSM    PO425762  10.230   5.086   3.168 -0.1341 -0.0603  0.0747
 2258SSM    OH125763  10.080   5.041   3.489 -0.1794  0.1100  0.1868
 2258SSM    AM225764  10.061   4.762   3.487  0.0051  0.2138  0.5422
 2258SSM    T1A25765  10.094   5.002   3.817 -0.0918 -0.0909 -0.1934
 2258SSM    C2A25766  10.164   4.994   4.185  0.0892 -0.1556 -0.3775
 2258SSM    C3A25767  10.055   5.100   4.637  0.2608  0.1292  0.0899
 2258SSM    C4A25768  10.172   5.196   5.089  0.1855 -0.2005 -0.3409
 2258SSM    C1B25769  10.300   4.381   3.587 -0.1520  0.2905 -0.0976
 2258SSM    C2B25770  10.436   4.167   4.028  0.0826 -0.0570  0.0369
 2258SSM    C3B25771  10.426   3.872   4.353 -0.0668  0.1970 -0.2609
 2258SSM    C4B25772  10.199   3.691   4.727  0.1311 -0.0524  0.2988
 2259SSM    NC325773   5.068   2.037   3.423 -0.1416 -0.1786 -0.0276
 2259SSM    PO425774   5.050   1.730   3.636 -0.0715 -0.1248  0.1175
 2259SSM    OH125775   5.238   1.784   3.946 -0.0784  0.1544  0.0285
 2259SSM    AM225776   5.043   1.970   4.096  0.2049  0.3670  0.0491
 2259SSM    T1A25777   5.367   1.795   4.267 -0.2060  0.0122 -0.1756
 2259SSM    C2A25778   5.437   1.871   4.661 -0.0144 -0.0496  0.1104
 2259SSM    C3A25779   5.414   1.823   5.084 -0.2521  0.0537 -0.0332
 2259SSM    C4A25780   5.480   1.794   5.613  0.0579 -0.5502 -0.1277
 2259SSM    C1B25781   4.962   1.991   4.458 -0.0482  0.2069 -0.0781
 2259SSM    C2B25782   4.905   2.025   5.008  0.0996 -0.1051  0.0532
 2259SSM    C3B25783   5.058   2.085   5.462 -0.1540  0.1734  0.0771
 2259SSM    C4B25784   5.001   1.855   5.885 -0.0273 -0.0532  0.1244
 2260SSM    NC325785  24.547   7.933   3.243 -0.1553  0.4215  0.2281
 2260SSM    PO425786  24.288   7.882   3.566  0.1473 -0.1757  0.1133
 2260SSM    OH125787  24.364   7.822   3.898  0.0763 -0.2805  0.0729
 2260SSM    AM225788  24.637   8.000   3.883 -0.2032  0.3655  0.2760
 2260SSM    T1A25789  24.465   7.893   4.217 -0.1204  0.0217 -0.1818
 2260SSM    C2A25790  24.573   7.897   4.591 -0.2299 -0.0129  0.0627
 2260SSM    C3A25791  24.581   8.113   5.000 -0.1197 -0.1434 -0.1362
 2260SSM    C4A25792  24.603   8.289   5.488 -0.0268  0.0486 -0.1667
 2260SSM    C1B25793  24.887   8.090   4.201  0.2751 -0.0426  0.0188
 2260SSM    C2B25794  24.982   8.205   4.685  0.1512  0.1011  0.0459
 2260SSM    C3B25795  25.091   8.325   5.136 -0.0535 -0.0395  0.2791
 2260SSM    C4B25796  25.093   8.189   5.648  0.2204 -0.0871  0.1544
 2261SSM    NC325797  10.418  17.944   3.101 -0.0873  0.1372 -0.2239
 2261SSM    PO425798  10.223  17.810   3.446 -0.0583 -0.2010 -0.0926
 2261SSM    OH125799  10.387  17.638   3.740  0.0460  0.0519 -0.0943
 2261SSM    AM225800  10.586  17.492   3.565  0.0269  0.2914 -0.1242
 2261SSM    T1A25801  10.418  17.485   4.039 -0.0699  0.0309  0.0393
 2261SSM    C2A25802  10.375  17.639   4.416  0.0817  0.2353  0.0586
 2261SSM    C3A25803  10.351  17.738   4.896  0.1221  0.2678  0.1332
 2261SSM    C4A25804  10.383  17.633   5.353  0.1152 -0.0704  0.0655
 2261SSM    C1B25805  10.765  17.222   3.864  0.0074  0.1262  0.1136
 2261SSM    C2B25806  10.867  16.975   4.369  0.1284  0.1514 -0.2509
 2261SSM    C3B25807  10.785  17.075   4.890  0.0784  0.3288  0.0896
 2261SSM    C4B25808  10.622  17.053   5.370 -0.2485 -0.0325 -0.1325
 2262SSM    NC325809   4.367   1.141   3.875  0.2574  0.0356  0.1925
 2262SSM    PO425810   4.180   0.797   3.839 -0.1188  0.0356  0.0251
 2262SSM    OH125811   3.950   0.943   4.074 -0.0357 -0.1339  0.0991
 2262SSM    AM225812   3.870   0.681   4.207 -0.0585  0.2483  0.0604
 2262SSM    T1A25813   3.983   1.127   4.342 -0.1491  0.2592 -0.6947
 2262SSM    C2A25814   3.937   1.185   4.717  0.0568  0.1027  0.2919
 2262SSM    C3A25815   3.914   1.244   5.238  0.0368 -0.1164  0.2836
 2262SSM    C4A25816   3.827   1.389   5.699 -0.1659  0.1696  0.1369
 2262SSM    C1B25817   3.663   0.789   4.534  0.0243 -0.3540 -0.0253
 2262SSM    C2B25818   3.597   0.953   5.011 -0.1254  0.1465  0.2337
 2262SSM    C3B25819   3.395   1.070   5.426  0.2269 -0.1482  0.2794
 2262SSM    C4B25820   3.444   1.198   5.911 -0.1793 -0.0929 -0.3906
 2263SSM    NC325821   4.463   6.608   3.344  0.4156 -0.0045  0.4516
 2263SSM    PO425822   4.208   6.345   3.284 -0.1496 -0.2622  0.0142
 2263SSM    OH125823   4.078   6.195   3.624  0.1705 -0.0079 -0.2343
 2263SSM    AM225824   4.156   6.468   3.766 -0.1840  0.3282  0.3379
 2263SSM    T1A25825   4.005   6.080   3.935  0.0265  0.1065 -0.1962
 2263SSM    C2A25826   4.082   5.950   4.321 -0.0380 -0.1861 -0.0302
 2263SSM    C3A25827   4.078   5.914   4.778  0.2682  0.2478 -0.3101
 2263SSM    C4A25828   4.027   5.967   5.269  0.0201 -0.0517 -0.2368
 2263SSM    C1B25829   4.146   6.524   4.140  0.1305  0.2288 -0.0297
 2263SSM    C2B25830   4.326   6.311   4.622 -0.0750  0.0274  0.1950
 2263SSM    C3B25831   4.463   6.232   5.075  0.0104  0.1813 -0.1631
 2263SSM    C4B25832   4.587   5.850   5.440  0.1718  0.2480  0.0833
 2264SSM    NC325833   6.317   1.812   3.309  0.1198  0.0916  0.1709
 2264SSM    PO425834   6.705   1.945   3.289 -0.0091 -0.1810  0.1021
 2264SSM    OH125835   6.694   1.948   3.632  0.1359  0.0494  0.0621
 2264SSM    AM225836   6.508   1.734   3.680 -0.0364  0.5419  0.0458
 2264SSM    T1A25837   6.701   2.047   3.970  0.3067  0.1347  0.1683
 2264SSM    C2A25838   6.608   2.053   4.324 -0.1586  0.0099  0.1046
 2264SSM    C3A25839   6.394   2.143   4.731  0.1219 -0.1630 -0.0968
 2264SSM    C4A25840   6.276   2.207   5.182  0.2660 -0.3026 -0.0029
 2264SSM    C1B25841   6.346   1.612   4.088  0.2233  0.0961 -0.1821
 2264SSM    C2B25842   6.306   1.679   4.613  0.3300  0.0766  0.0570
 2264SSM    C3B25843   6.421   1.780   5.086 -0.0502  0.1668  0.0072
 2264SSM    C4B25844   6.277   1.873   5.575  0.0441 -0.0815  0.1377
 2265SSM    NC325845  24.952   4.526   3.588  0.0145  0.2691  0.1505
 2265SSM    PO425846  25.316   4.469   3.681  0.0143  0.1742 -0.1275
 2265SSM    OH125847  25.254   4.467   4.013  0.1281 -0.0213 -0.1861
 2265SSM    AM225848  25.098   4.724   4.026  0.2421 -0.0109  0.2273
 2265SSM    T1A25849  25.150   4.453   4.352 -0.6600 -0.0653 -0.0193
 2265SSM    C2A25850  25.088   4.216   4.684  0.0660  0.1046 -0.1206
 2265SSM    C3A25851  25.051   3.939   5.139 -0.1906 -0.1065  0.0950
 2265SSM    C4A25852  25.077   3.487   5.325 -0.0349  0.2470 -0.2467
 2265SSM    C1B25853  24.876   4.952   4.264 -0.2405  0.3027 -0.2106
 2265SSM    C2B25854  24.807   5.192   4.749  0.0610  0.0830  0.1913
 2265SSM    C3B25855  24.871   5.285   5.192 -0.1073 -0.0451 -0.1519
 2265SSM    C4B25856  24.972   5.430   5.635  0.1120 -0.0137  0.3103
 2266SSM    NC325857  13.972  26.666   4.048  0.1126  0.0539 -0.0847
 2266SSM    PO425858  13.614  26.830   4.023  0.1736  0.4068 -0.0180
 2266SSM    OH125859  13.446  26.974   4.345 -0.4298  0.1692  0.1463
 2266SSM    AM225860  13.664  26.849   4.488  0.1730  0.0377 -0.2129
 2266SSM    T1A25861  13.360  27.130   4.637 -0.0169 -0.2406  0.2436
 2266SSM    C2A25862  13.340  27.183   5.042  0.4487 -0.1741 -0.1501
 2266SSM    C3A25863  13.124  27.263   5.493  0.0417  0.2743  0.1507
 2266SSM    C4A25864  12.878  27.586   5.687 -0.4333 -0.0903  0.0558
 2266SSM    C1B25865  13.749  26.844   4.884 -0.2364 -0.2641  0.1190
 2266SSM    C2B25866  13.945  26.832   5.321  0.0038  0.2308 -0.0639
 2266SSM    C3B25867  14.069  26.834   5.787  0.0872  0.1434 -0.1823
 2266SSM    C4B25868  14.278  27.115   6.196  0.5641 -0.0410  0.2876
 2267SSM    NC325869  21.679  14.462   3.228  0.0061 -0.2058 -0.1453
 2267SSM    PO425870  21.569  14.870   3.219 -0.3605  0.1780  0.0396
 2267SSM    OH125871  21.449  15.025   3.528  0.2062 -0.0779  0.0328
 2267SSM    AM225872  21.593  14.795   3.685  0.2399 -0.0313  0.3232
 2267SSM    T1A25873  21.440  15.225   3.818  0.0347  0.0956  0.0786
 2267SSM    C2A25874  21.320  15.176   4.235 -0.1145  0.1625 -0.0023
 2267SSM    C3A25875  21.244  15.329   4.738 -0.0215  0.0127 -0.0846
 2267SSM    C4A25876  21.197  15.165   5.159  0.0429  0.2466  0.0670
 2267SSM    C1B25877  21.805  14.645   3.970 -0.3881 -0.0406  0.3816
 2267SSM    C2B25878  21.685  14.207   4.201  0.0606  0.1151  0.1810
 2267SSM    C3B25879  21.732  13.878   4.547 -0.3332 -0.3085 -0.2040
 2267SSM    C4B25880  21.833  13.564   4.880 -0.0864  0.3200 -0.0975
 2268SSM    NC325881  26.466  26.594   3.655  0.2290 -0.0660  0.0859
 2268SSM    PO425882  26.680  26.775   3.361 -0.0041 -0.0928  0.1380
 2268SSM    OH125883  26.841  27.066   3.483 -0.2494 -0.1753  0.1144
 2268SSM    AM225884  26.836  26.958   3.764 -0.0393 -0.1201  0.1902
 2268SSM    T1A25885  27.038  27.316   3.603  0.1023  0.0024  0.1456
 2268SSM    C2A25886  27.161  27.417   3.962  0.3139 -0.0101  0.1887
 2268SSM    C3A25887  27.261  27.368   4.387 -0.0774  0.1720  0.1818
 2268SSM    C4A25888  27.438  27.603   4.806  0.0416  0.0418  0.1290
 2268SSM    C1B25889  26.975  27.013   4.170 -0.1443  0.0715  0.0152
 2268SSM    C2B25890  27.196  26.824   4.610  0.4267 -0.1102 -0.0392
 2268SSM    C3B25891  27.093  26.753   5.086 -0.0746 -0.1380 -0.0851
 2268SSM    C4B25892  27.064  26.817   5.542 -0.3707  0.2506  0.2985
 2269SSM    NC325893  11.286   0.919   3.119  0.0678 -0.3234 -0.0982
 2269SSM    PO425894  11.574   0.863   3.429 -0.0319  0.0147 -0.0473
 2269SSM    OH125895  11.447   0.877   3.761  0.0123  0.4238 -0.3220
 2269SSM    AM225896  11.697   0.811   3.897 -0.1676  0.4529  0.2040
 2269SSM    T1A25897  11.238   0.825   4.026  0.2429  0.2816  0.0113
 2269SSM    C2A25898  11.251   0.763   4.415  0.1394 -0.1109  0.1738
 2269SSM    C3A25899  11.316   0.729   4.921  0.0083 -0.0600 -0.0422
 2269SSM    C4A25900  11.276   0.730   5.424  0.0498 -0.1533 -0.0398
 2269SSM    C1B25901  11.730   0.757   4.234  0.0861 -0.1721 -0.1137
 2269SSM    C2B25902  11.750   0.854   4.746  0.0400 -0.0778 -0.1709
 2269SSM    C3B25903  11.825   1.004   5.225 -0.4799 -0.1946 -0.1860
 2269SSM    C4B25904  11.823   1.352   5.605 -0.0235 -0.0540  0.2297
 2270SSM    NC325905  27.228   0.995   3.487  0.3369 -0.0150 -0.0219
 2270SSM    PO425906  27.525   1.259   3.521 -0.1435 -0.0910  0.0644
 2270SSM    OH125907  27.887   1.200   3.627  0.0040 -0.0807  0.2363
 2270SSM    AM225908  27.812   1.262   3.914  0.2668  0.0009 -0.0137
 2270SSM    T1A25909  28.166   1.344   3.737  0.1970 -0.4059  0.0244
 2270SSM    C2A25910  28.345   1.326   4.085  0.0257 -0.1843 -0.2639
 2270SSM    C3A25911  28.641   1.265   4.419 -0.1267 -0.1342 -0.0333
 2270SSM    C4A25912  28.828   1.348   4.860  0.2069  0.1613 -0.1691
 2270SSM    C1B25913  27.876   1.145   4.248 -0.1580  0.0465  0.1111
 2270SSM    C2B25914  28.251   0.904   4.477 -0.0717 -0.2524 -0.1147
 2270SSM    C3B25915  28.718   0.760   4.382 -0.2548 -0.0581 -0.2345
 2270SSM    C4B25916  29.196   0.468   4.305  0.0704 -0.2060  0.2290
 2271SSM    NC325917  20.683   8.474   3.495  0.1207  0.1959  0.3717
 2271SSM    PO425918  20.286   8.445   3.529  0.0761  0.1268 -0.1871
 2271SSM    OH125919  20.081   8.446   3.783  0.2153 -0.1398  0.5368
 2271SSM    AM225920  20.210   8.344   4.005 -0.2219  0.0314  0.0740
 2271SSM    T1A25921  19.802   8.430   4.005 -0.0079 -0.1110 -0.2982
 2271SSM    C2A25922  19.545   8.580   4.221  0.1112  0.2783 -0.1739
 2271SSM    C3A25923  19.244   8.506   4.571 -0.4024  0.3158  0.1595
 2271SSM    C4A25924  18.942   8.636   4.955 -0.4146 -0.1541 -0.0732
 2271SSM    C1B25925  20.140   8.174   4.330 -0.2416  0.1774 -0.1178
 2271SSM    C2B25926  19.961   8.058   4.727  0.3270  0.2662  0.1867
 2271SSM    C3B25927  19.658   8.013   5.042  0.2326 -0.0215  0.0558
 2271SSM    C4B25928  19.702   8.215   5.467 -0.3911  0.0783  0.2453
 2272SSM    NC325929  26.580   8.449   3.520  0.3078 -0.3290  0.1473
 2272SSM    PO425930  26.502   8.825   3.697  0.2717 -0.2017  0.0845
 2272SSM    OH125931  26.178   8.776   3.879 -0.0218  0.2613 -0.1202
 2272SSM    AM225932  26.319   8.578   4.067 -0.2300 -0.1079  0.2058
 2272SSM    T1A25933  25.954   8.820   4.142  0.2077 -0.4024 -0.3351
 2272SSM    C2A25934  25.879   8.830   4.583  0.0232  0.4868 -0.1193
 2272SSM    C3A25935  25.672   8.842   4.997 -0.1183  0.6060 -0.1046
 2272SSM    C4A25936  25.827   8.548   5.392 -0.2412 -0.0419  0.0584
 2272SSM    C1B25937  26.396   8.521   4.424  0.2696  0.1260  0.3197
 2272SSM    C2B25938  26.647   8.402   4.856 -0.0167 -0.0344  0.1286
 2272SSM    C3B25939  26.681   8.626   5.281  0.2939  0.2425 -0.0276
 2272SSM    C4B25940  26.605   8.937   5.641  0.0500 -0.0449 -0.1855
 2273SSM    NC325941  19.242   2.274   3.159 -0.2595  0.0986  0.0161
 2273SSM    PO425942  19.062   2.620   3.245  0.1958  0.0157  0.1005
 2273SSM    OH125943  18.801   2.590   3.512 -0.4057  0.0608 -0.0552
 2273SSM    AM225944  19.032   2.645   3.713 -0.1650  0.2203 -0.1110
 2273SSM    T1A25945  18.665   2.434   3.810 -0.0496  0.1091  0.3949
 2273SSM    C2A25946  18.553   2.524   4.160 -0.4077  0.0148  0.1903
 2273SSM    C3A25947  18.601   2.623   4.580 -0.1115  0.0906 -0.1287
 2273SSM    C4A25948  18.547   2.750   5.078 -0.0313 -0.1590  0.1226
 2273SSM    C1B25949  19.216   2.791   4.029  0.1922 -0.2429  0.0676
 2273SSM    C2B25950  19.207   2.773   4.577 -0.0947 -0.0338  0.1826
 2273SSM    C3B25951  19.284   2.982   5.009  0.0653 -0.1795 -0.0354
 2273SSM    C4B25952  19.430   2.903   5.476 -0.3622 -0.1303  0.0403
 2274SSM    NC325953   8.546  24.979   3.305 -0.0229 -0.0244 -0.3037
 2274SSM    PO425954   8.371  25.306   3.471  0.3270 -0.2089  0.1492
 2274SSM    OH125955   8.358  25.259   3.844  0.1077  0.4519 -0.1154
 2274SSM    AM225956   8.532  25.501   3.895 -0.2937 -0.1400 -0.2475
 2274SSM    T1A25957   8.568  25.059   4.035 -0.2585  0.2023 -0.0594
 2274SSM    C2A25958   8.868  25.111   4.270 -0.1177 -0.1458 -0.1274
 2274SSM    C3A25959   9.213  24.944   4.560 -0.0071  0.0718 -0.0311
 2274SSM    C4A25960   9.470  24.812   4.874 -0.2678 -0.1022  0.1236
 2274SSM    C1B25961   8.504  25.465   4.320 -0.0233  0.2262  0.3829
 2274SSM    C2B25962   8.457  25.460   4.838  0.0995  0.0702 -0.0988
 2274SSM    C3B25963   8.620  25.508   5.336 -0.0015  0.3088  0.1925
 2274SSM    C4B25964   8.887  25.316   5.694  0.2300 -0.0566 -0.2949
 2275SSM    NC325965  15.843  27.437   4.005 -0.3090  0.0004  0.3960
 2275SSM    PO425966  15.901  27.760   3.814  0.0201 -0.1147  0.0215
 2275SSM    OH125967  16.043  28.045   4.008  0.3140  0.3781  0.1250
 2275SSM    AM225968  16.151  27.871   4.211  0.0896 -0.0082 -0.3798
 2275SSM    T1A25969  15.939  28.251   4.254 -0.0120 -0.5516 -0.0520
 2275SSM    C2A25970  16.158  28.266   4.572  0.0581  0.4400 -0.0370
 2275SSM    C3A25971  16.239  28.168   5.023 -0.1302  0.0450  0.3957
 2275SSM    C4A25972  16.320  28.025   5.424 -0.0703 -0.2266 -0.0417
 2275SSM    C1B25973  16.278  27.752   4.529  0.0994 -0.1083 -0.0379
 2275SSM    C2B25974  16.453  27.665   4.971  0.1431  0.0188  0.3529
 2275SSM    C3B25975  16.592  27.640   5.476  0.0498  0.1923 -0.2400
 2275SSM    C4B25976  16.461  27.184   5.787  0.0063 -0.1527  0.3283
 2276SSM    NC325977   3.549   2.171   3.183 -0.0970  0.0860 -0.0660
 2276SSM    PO425978   3.400   2.018   3.523  0.0623 -0.2982 -0.1119
 2276SSM    OH125979   3.361   2.170   3.844  0.1415 -0.4160 -0.3154
 2276SSM    AM225980   3.051   2.155   3.799 -0.1377  0.3233 -0.1781
 2276SSM    T1A25981   3.402   2.201   4.202 -0.1533 -0.0904  0.1933
 2276SSM    C2A25982   3.484   2.252   4.586  0.3172 -0.1365 -0.1699
 2276SSM    C3A25983   3.552   2.010   5.042 -0.0435  0.0141  0.1835
 2276SSM    C4A25984   3.436   1.730   5.478  0.2032 -0.3504 -0.0466
 2276SSM    C1B25985   2.754   2.262   4.120 -0.3052 -0.1719 -0.2011
 2276SSM    C2B25986   2.957   2.358   4.608  0.1300  0.1275 -0.4038
 2276SSM    C3B25987   3.179   2.328   5.029  0.4349 -0.0429 -0.0383
 2276SSM    C4B25988   3.339   2.227   5.475 -0.0844  0.0020 -0.1429
 2277SSM    NC325989  21.778   1.920   3.417 -0.0348  0.1968 -0.0722
 2277SSM    PO425990  21.953   1.580   3.511  0.0266 -0.3013 -0.1768
 2277SSM    OH125991  21.949   1.408   3.818 -0.1128 -0.2797  0.3136
 2277SSM    AM225992  21.691   1.545   3.934  0.0668  0.3991 -0.3914
 2277SSM    T1A25993  22.087   1.356   4.134  0.2318  0.0788 -0.2522
 2277SSM    C2A25994  22.342   1.213   4.409  0.0737 -0.3610 -0.1675
 2277SSM    C3A25995  22.640   1.314   4.701  0.0390 -0.2918 -0.0452
 2277SSM    C4A25996  23.108   1.378   4.908  0.2264  0.0025 -0.0006
 2277SSM    C1B25997  21.585   1.584   4.393  0.2229 -0.1783  0.2977
 2277SSM    C2B25998  21.544   1.727   4.830  0.0387  0.0532 -0.0786
 2277SSM    C3B25999  21.484   1.735   5.248 -0.2427  0.1281 -0.2952
 2277SSM    C4B26000  21.656   1.942   5.684  0.0911 -0.0755 -0.0615
 2278SSM    NC326001   0.595  20.548   2.944  0.1686 -0.2802  0.1276
 2278SSM    PO426002   0.525  20.524   3.334  0.1478  0.0838  0.1641
 2278SSM    OH126003   0.657  20.657   3.637 -0.1616  0.1915  0.1833
 2278SSM    AM226004   0.464  20.572   3.822  0.1089 -0.0331 -0.1746
 2278SSM    T1A26005   0.845  20.771   3.919  0.0099  0.2588 -0.0535
 2278SSM    C2A26006   1.026  20.580   4.294  0.0189 -0.3814 -0.0137
 2278SSM    C3A26007   1.109  20.451   4.722 -0.1493 -0.1244  0.2504
 2278SSM    C4A26008   1.222  20.255   5.164 -0.1306  0.0663 -0.2136
 2278SSM    C1B26009   0.368  20.694   4.204  0.0951 -0.1473 -0.0808
 2278SSM    C2B26010   0.167  20.891   4.608  0.0070  0.2257  0.2784
 2278SSM    C3B26011  -0.079  21.122   4.975 -0.1733  0.0442  0.1572
 2278SSM    C4B26012  -0.429  21.068   5.394  0.1217 -0.2270 -0.2402
 2279SSM    NC326013  17.244  26.448   3.875 -0.2051 -0.0756 -0.0651
 2279SSM    PO426014  16.878  26.299   3.703 -0.1280 -0.2554  0.0707
 2279SSM    OH126015  16.731  26.108   4.009  0.0942  0.1011  0.1202
 2279SSM    AM226016  16.847  26.315   4.161 -0.1400  0.0609 -0.3562
 2279SSM    T1A26017  16.580  25.996   4.296 -0.0220 -0.0550  0.0649
 2279SSM    C2A26018  16.476  25.822   4.612  0.1399  0.0035 -0.2683
 2279SSM    C3A26019  16.705  25.421   4.625 -0.2314 -0.1376 -0.1270
 2279SSM    C4A26020  16.969  25.063   4.618 -0.0259  0.1114 -0.2556
 2279SSM    C1B26021  16.794  26.451   4.548  0.2439  0.4495  0.0018
 2279SSM    C2B26022  16.848  26.516   5.102  0.1292 -0.0050  0.3290
 2279SSM    C3B26023  16.788  26.638   5.581 -0.2975 -0.0107 -0.1595
 2279SSM    C4B26024  17.032  26.922   5.882 -0.0390  0.0769  0.1744
 2280SSM    NC326025  19.904  18.669   3.653  0.1670  0.2073 -0.1899
 2280SSM    PO426026  19.538  18.785   3.633  0.1694 -0.1791  0.2260
 2280SSM    OH126027  19.510  18.728   3.976 -0.2198  0.1751 -0.2276
 2280SSM    AM226028  19.404  18.983   4.051 -0.2161  0.0978 -0.1162
 2280SSM    T1A26029  19.350  18.629   4.292  0.1822 -0.3726  0.5456
 2280SSM    C2A26030  19.281  18.485   4.645 -0.0957  0.2485 -0.0792
 2280SSM    C3A26031  19.149  18.360   5.057 -0.2705 -0.0504  0.0435
 2280SSM    C4A26032  19.120  17.829   5.124 -0.0916 -0.1823 -0.1398
 2280SSM    C1B26033  19.332  19.193   4.361 -0.1113  0.1030 -0.2496
 2280SSM    C2B26034  19.099  19.247   4.856  0.0115  0.0758 -0.1195
 2280SSM    C3B26035  19.112  19.039   5.340  0.0141 -0.1570  0.1228
 2280SSM    C4B26036  19.178  18.941   5.809 -0.2045  0.0839  0.1008
 2281SSM    NC326037  17.749   4.408   3.579  0.0424 -0.2171  0.0262
 2281SSM    PO426038  18.050   4.245   3.393 -0.1179  0.0268  0.0493
 2281SSM    OH126039  18.188   4.235   3.699  0.1173  0.0044  0.2803
 2281SSM    AM226040  17.965   4.069   3.845 -0.0861  0.1983  0.0036
 2281SSM    T1A26041  18.292   4.215   4.055 -0.1837 -0.0231  0.0933
 2281SSM    C2A26042  18.087   4.174   4.402 -0.2441 -0.0066  0.1226
 2281SSM    C3A26043  17.724   4.199   4.682  0.0709  0.1785 -0.1915
 2281SSM    C4A26044  17.272   3.956   4.853  0.0562  0.0921 -0.0143
 2281SSM    C1B26045  17.632   4.093   3.988 -0.2983 -0.0696 -0.0695
 2281SSM    C2B26046  17.308   4.121   4.384  0.0022 -0.0545 -0.1387
 2281SSM    C3B26047  17.006   4.331   4.732 -0.1953 -0.0594 -0.2110
 2281SSM    C4B26048  16.669   4.459   5.112 -0.1003  0.3116  0.1767
 2282SSM    NC326049   5.187   1.234   3.270 -0.0312 -0.0121 -0.0146
 2282SSM    PO426050   4.857   1.265   3.516 -0.3378  0.0286  0.0914
 2282SSM    OH126051   4.825   1.253   3.884  0.0208 -0.1749 -0.0706
 2282SSM    AM226052   4.752   1.518   3.922 -0.0564 -0.0496 -0.1150
 2282SSM    T1A26053   4.709   1.185   4.197  0.0980 -0.0229  0.4386
 2282SSM    C2A26054   4.446   1.229   4.479 -0.1094 -0.1317 -0.3697
 2282SSM    C3A26055   4.390   1.377   4.926 -0.1121 -0.5154  0.2225
 2282SSM    C4A26056   4.467   1.333   5.400  0.1398 -0.0193  0.1153
 2282SSM    C1B26057   4.599   1.780   4.183 -0.1102  0.1306 -0.3118
 2282SSM    C2B26058   4.533   1.756   4.639 -0.2048 -0.1966  0.0466
 2282SSM    C3B26059   4.439   1.872   5.085 -0.1578  0.1746 -0.1145
 2282SSM    C4B26060   4.538   2.107   5.504  0.3646 -0.2128  0.1228
 2283SSM    NC326061   4.782  13.688   3.290  0.0045  0.1046 -0.0188
 2283SSM    PO426062   4.461  13.938   3.321  0.0414  0.0379  0.0105
 2283SSM    OH126063   4.545  14.155   3.566  0.2407  0.2827 -0.2124
 2283SSM    AM226064   4.741  13.952   3.719 -0.0976 -0.2087 -0.0939
 2283SSM    T1A26065   4.563  14.322   3.880 -0.2212 -0.0679 -0.1500
 2283SSM    C2A26066   4.638  14.404   4.300  0.2832 -0.0617  0.0724
 2283SSM    C3A26067   4.803  14.373   4.749 -0.0905 -0.0050 -0.2410
 2283SSM    C4A26068   4.957  14.761   5.041 -0.1540  0.1340  0.0572
 2283SSM    C1B26069   4.905  13.949   4.080 -0.0507  0.1375 -0.0565
 2283SSM    C2B26070   5.051  13.965   4.552 -0.2824  0.1513  0.0464
 2283SSM    C3B26071   5.220  13.854   4.929  0.1060 -0.1196 -0.0152
 2283SSM    C4B26072   5.701  13.743   5.066  0.2098 -0.4164 -0.3040
 2284SSM    NC326073  14.830   5.558   3.740 -0.2792  0.0830  0.1255
 2284SSM    PO426074  14.562   5.808   3.586 -0.0414 -0.2680  0.1365
 2284SSM    OH126075  14.611   6.063   3.874  0.0371  0.2907 -0.0893
 2284SSM    AM226076  14.619   5.845   4.077  0.2294  0.1043 -0.2947
 2284SSM    T1A26077  14.709   6.238   4.137  0.2826  0.0931  0.4610
 2284SSM    C2A26078  14.693   6.346   4.477  0.1644 -0.2270 -0.0280
 2284SSM    C3A26079  14.790   6.261   4.964  0.0687  0.1937 -0.1905
 2284SSM    C4A26080  14.674   6.391   5.491  0.0612  0.1090  0.0664
 2284SSM    C1B26081  14.395   5.677   4.407 -0.0942  0.2988 -0.1355
 2284SSM    C2B26082  14.446   5.871   4.958  0.1782  0.0632  0.1260
 2284SSM    C3B26083  14.330   6.047   5.367 -0.2064 -0.0357 -0.3154
 2284SSM    C4B26084  14.329   6.172   5.845  0.0102  0.3061  0.2060
 2285SSM    NC326085   9.164  25.978   3.470  0.0471 -0.1692  0.3472
 2285SSM    PO426086   9.266  25.639   3.351 -0.0002 -0.0504  0.2788
 2285SSM    OH126087   9.484  25.615   3.658 -0.1853 -0.4671  0.0202
 2285SSM    AM226088   9.260  25.615   3.846  0.1968  0.0283 -0.1334
 2285SSM    T1A26089   9.697  25.536   3.899 -0.0604 -0.1577  0.1455
 2285SSM    C2A26090   9.886  25.370   4.213 -0.2317 -0.3754  0.1229
 2285SSM    C3A26091  10.226  25.326   4.433 -0.2130  0.2732 -0.0280
 2285SSM    C4A26092  10.570  25.298   4.805  0.0793  0.0624  0.4183
 2285SSM    C1B26093   9.297  25.473   4.211  0.0374  0.0366  0.0642
 2285SSM    C2B26094   9.551  25.465   4.574 -0.2562  0.1763 -0.2077
 2285SSM    C3B26095   9.557  25.313   5.006  0.1910  0.2544  0.2380
 2285SSM    C4B26096   9.558  25.075   5.440 -0.1075  0.0817  0.1186
 2286SSM    NC326097  13.762  25.401   3.561 -0.2556  0.1817  0.0863
 2286SSM    PO426098  14.137  25.243   3.575 -0.2163 -0.4820  0.4485
 2286SSM    OH126099  14.180  25.214   3.929  0.1002  0.3978 -0.3213
 2286SSM    AM226100  13.879  25.214   3.994 -0.4523 -0.0686 -0.3855
 2286SSM    T1A26101  14.208  25.039   4.227  0.0780 -0.2015 -0.3376
 2286SSM    C2A26102  14.091  25.042   4.576 -0.0072  0.0808 -0.0568
 2286SSM    C3A26103  14.028  25.001   5.034 -0.0285  0.2693  0.1792
 2286SSM    C4A26104  14.133  25.084   5.518 -0.0221 -0.1072 -0.0455
 2286SSM    C1B26105  13.758  25.298   4.363  0.0912 -0.1245 -0.1043
 2286SSM    C2B26106  13.761  25.403   4.863  0.1162  0.1290  0.0147
 2286SSM    C3B26107  13.712  25.420   5.323 -0.0136 -0.1014 -0.2190
 2286SSM    C4B26108  13.913  25.516   5.750 -0.0269 -0.0034  0.2750
 2287SSM    NC326109  13.597  26.347   3.800 -0.1583  0.0875 -0.1569
 2287SSM    PO426110  13.931  26.214   3.793 -0.2187  0.1613 -0.0963
 2287SSM    OH126111  14.092  26.242   4.151 -0.0954 -0.1651 -0.2547
 2287SSM    AM226112  14.073  25.959   4.267 -0.0344 -0.1260  0.2917
 2287SSM    T1A26113  14.172  26.301   4.479 -0.2812 -0.0860 -0.1966
 2287SSM    C2A26114  14.306  26.111   4.800  0.1039 -0.0417  0.1159
 2287SSM    C3A26115  14.447  26.078   5.193 -0.0663 -0.1347  0.4474
 2287SSM    C4A26116  14.448  26.069   5.666  0.0400  0.0928 -0.1787
 2287SSM    C1B26117  13.887  25.868   4.556 -0.4504 -0.1197 -0.0286
 2287SSM    C2B26118  13.767  25.845   5.054 -0.1450  0.1526 -0.1027
 2287SSM    C3B26119  13.601  25.898   5.522 -0.2868  0.2305 -0.4751
 2287SSM    C4B26120  13.554  26.054   5.947  0.4010 -0.3605  0.0397
 2288SSM    NC326121  25.104   5.710   3.655 -0.3207 -0.2615 -0.0837
 2288SSM    PO426122  24.726   5.709   3.636 -0.1205 -0.1173  0.0986
 2288SSM    OH126123  24.693   5.859   3.962 -0.1085 -0.3098 -0.0728
 2288SSM    AM226124  24.515   5.680   4.115 -0.5598 -0.2143 -0.2356
 2288SSM    T1A26125  24.802   5.992   4.269 -0.0426 -0.4003  0.3395
 2288SSM    C2A26126  24.943   6.155   4.666 -0.0687  0.0421  0.1699
 2288SSM    C3A26127  24.920   6.307   5.087  0.1996 -0.0499 -0.0737
 2288SSM    C4A26128  24.730   6.313   5.528 -0.0089 -0.0070 -0.0709
 2288SSM    C1B26129  24.401   5.642   4.496 -0.3135 -0.1126  0.3038
 2288SSM    C2B26130  24.434   5.413   4.903  0.0287  0.0601 -0.0546
 2288SSM    C3B26131  24.456   5.354   5.410 -0.0410  0.1377 -0.0701
 2288SSM    C4B26132  24.682   5.047   5.773 -0.2034  0.4789 -0.0128
 2289SSM    NC326133  10.396  14.931   3.246  0.0651 -0.2928 -0.1046
 2289SSM    PO426134  10.031  15.022   3.437  0.4436 -0.0009  0.0945
 2289SSM    OH126135   9.944  14.818   3.711  0.3400  0.0211 -0.0719
 2289SSM    AM226136   9.900  15.043   3.899 -0.0207 -0.1326 -0.0141
 2289SSM    T1A26137   9.732  14.580   3.840 -0.0957  0.1432 -0.0837
 2289SSM    C2A26138   9.737  14.638   4.234  0.0206 -0.0885 -0.0398
 2289SSM    C3A26139   9.743  14.667   4.677  0.0215 -0.0812 -0.2512
 2289SSM    C4A26140   9.906  14.879   5.122  0.2076 -0.0628  0.0334
 2289SSM    C1B26141   9.862  15.135   4.280 -0.5278 -0.0263  0.3467
 2289SSM    C2B26142   9.666  15.233   4.670  0.1648 -0.0491  0.0491
 2289SSM    C3B26143   9.521  15.333   5.125 -0.0799 -0.0108 -0.0734
 2289SSM    C4B26144   9.514  15.785   5.292  0.0964  0.0860  0.0425
 2290SSM    NC326145  24.417   4.733   3.293  0.1038  0.0667 -0.1189
 2290SSM    PO426146  24.390   4.525   3.634 -0.0389  0.3658  0.2817
 2290SSM    OH126147  24.460   4.576   3.987 -0.0390 -0.2632 -0.2272
 2290SSM    AM226148  24.423   4.275   4.054  0.0004  0.4992 -0.0551
 2290SSM    T1A26149  24.569   4.584   4.312  0.1416 -0.3982 -0.2537
 2290SSM    C2A26150  24.792   4.628   4.672  0.0221  0.2384 -0.0462
 2290SSM    C3A26151  24.961   4.463   5.159 -0.1998 -0.1424  0.2361
 2290SSM    C4A26152  25.098   4.259   5.614 -0.3352 -0.1407 -0.2024
 2290SSM    C1B26153  24.550   4.106   4.387  0.1343  0.2511  0.1442
 2290SSM    C2B26154  24.638   4.017   4.932  0.0823 -0.0027  0.5518
 2290SSM    C3B26155  24.585   4.053   5.432  0.2221 -0.0300 -0.1744
 2290SSM    C4B26156  24.635   4.166   5.905  0.0115 -0.4807  0.2572
 2291SSM    NC326157   4.881   5.715   2.997  0.1636 -0.4412 -0.0682
 2291SSM    PO426158   4.649   5.519   3.268  0.0673 -0.0020  0.1041
 2291SSM    OH126159   4.449   5.542   3.621  0.0788 -0.0840  0.3999
 2291SSM    AM226160   4.693   5.429   3.733  0.1880  0.0213 -0.3579
 2291SSM    T1A26161   4.386   5.769   3.879  0.0971 -0.0789 -0.0754
 2291SSM    C2A26162   4.510   6.058   4.129  0.1774  0.1472  0.2027
 2291SSM    C3A26163   4.850   6.302   4.272  0.1851 -0.2365 -0.2458
 2291SSM    C4A26164   5.155   6.652   4.540  0.0116  0.0930 -0.0181
 2291SSM    C1B26165   4.855   5.081   3.962 -0.1100 -0.1045 -0.0535
 2291SSM    C2B26166   5.084   5.111   4.447  0.0264 -0.0324  0.0395
 2291SSM    C3B26167   4.946   5.094   4.887 -0.0682 -0.2706  0.1536
 2291SSM    C4B26168   4.738   5.306   5.316  0.0251  0.1052 -0.1848
 2292SSM    NC326169  21.747  16.508   3.298  0.4172 -0.0972  0.0472
 2292SSM    PO426170  21.905  16.646   2.951  0.2220  0.3050 -0.3653
 2292SSM    OH126171  22.217  16.757   3.092 -0.1121 -0.0405 -0.0180
 2292SSM    AM226172  22.100  16.751   3.394  0.0572 -0.3460  0.0627
 2292SSM    T1A26173  22.420  17.008   3.264 -0.0361  0.4592 -0.1207
 2292SSM    C2A26174  22.546  17.180   3.603  0.0589  0.0362  0.3746
 2292SSM    C3A26175  22.548  17.456   4.026  0.1785  0.4665 -0.1174
 2292SSM    C4A26176  22.288  17.435   4.475 -0.0312 -0.2910 -0.3474
 2292SSM    C1B26177  22.096  16.839   3.790  0.1592 -0.1851 -0.1100
 2292SSM    C2B26178  22.358  17.003   4.243  0.0696  0.2313 -0.4061
 2292SSM    C3B26179  22.752  17.142   4.387 -0.0581  0.1731 -0.1830
 2292SSM    C4B26180  23.079  16.863   4.607  0.1962  0.2847  0.1357
 2293SSM    NC326181   3.701  18.240   3.688 -0.1525  0.0765 -0.0608
 2293SSM    PO426182   3.850  17.958   3.497  0.0382 -0.4607 -0.1162
 2293SSM    OH126183   3.537  17.804   3.667 -0.3252 -0.0166  0.1953
 2293SSM    AM226184   3.713  17.720   3.898 -0.0287  0.3427  0.2899
 2293SSM    T1A26185   3.292  17.625   3.827  0.1395 -0.0206 -0.0128
 2293SSM    C2A26186   3.189  17.390   4.096  0.0737  0.1321 -0.1147
 2293SSM    C3A26187   2.871  17.294   4.470  0.2351  0.0074  0.0512
 2293SSM    C4A26188   2.565  16.954   4.682 -0.0046 -0.1806 -0.1900
 2293SSM    C1B26189   3.617  17.643   4.245 -0.0929 -0.0949  0.1911
 2293SSM    C2B26190   3.430  17.534   4.698 -0.4612  0.1959 -0.0716
 2293SSM    C3B26191   3.289  17.280   5.141 -0.1002  0.1678  0.0883
 2293SSM    C4B26192   2.896  17.083   5.359  0.0223 -0.0083 -0.0063
 2294SSM    NC326193   9.778  15.198   3.015 -0.0786  0.1762 -0.2186
 2294SSM    PO426194   9.627  14.894   3.135  0.3282  0.4174 -0.5732
 2294SSM    OH126195   9.551  14.936   3.504 -0.0002  0.1249  0.3627
 2294SSM    AM226196   9.252  14.934   3.452  0.1477 -0.0804  0.3676
 2294SSM    T1A26197   9.490  14.981   3.846  0.6016  0.1949  0.1249
 2294SSM    C2A26198   9.415  14.989   4.251  0.0848  0.0151  0.0027
 2294SSM    C3A26199   9.339  14.856   4.709  0.2433 -0.0523 -0.1594
 2294SSM    C4A26200   9.421  14.774   5.148 -0.1782 -0.0748 -0.0376
 2294SSM    C1B26201   8.956  15.090   3.673  0.0412 -0.0794  0.0779
 2294SSM    C2B26202   8.900  14.963   4.132 -0.0693 -0.1783  0.3265
 2294SSM    C3B26203   8.825  14.858   4.559 -0.2374 -0.0193 -0.0106
 2294SSM    C4B26204   8.922  14.792   5.027  0.1470 -0.3875  0.0521
 2295SSM    NC326205   9.992   2.926   3.247  0.0650  0.0388  0.1073
 2295SSM    PO426206  10.125   2.615   3.303 -0.1604  0.1397  0.1568
 2295SSM    OH126207  10.193   2.658   3.648 -0.2508 -0.2597 -0.3157
 2295SSM    AM226208   9.956   2.487   3.720 -0.0510 -0.1915  0.0119
 2295SSM    T1A26209  10.168   2.797   3.955 -0.0977 -0.0534  0.0053
 2295SSM    C2A26210   9.868   2.768   4.235  0.1853 -0.1418  0.1006
 2295SSM    C3A26211   9.879   2.814   4.728  0.0584 -0.5912 -0.2837
 2295SSM    C4A26212   9.919   2.526   5.080 -0.3382  0.1694  0.2855
 2295SSM    C1B26213   9.675   2.364   3.964 -0.2537  0.0681 -0.2115
 2295SSM    C2B26214   9.285   2.481   4.340 -0.0455 -0.0515 -0.0157
 2295SSM    C3B26215   9.020   2.829   4.400 -0.0315  0.1557  0.1724
 2295SSM    C4B26216   8.895   3.161   4.744  0.2206  0.1191  0.0790
 2296SSM    NC326217   8.828   8.911   3.398 -0.1867 -0.1290 -0.2813
 2296SSM    PO426218   8.557   9.021   3.145  0.0335 -0.0468 -0.0089
 2296SSM    OH126219   8.366   9.228   3.370 -0.1146  0.1328  0.0246
 2296SSM    AM226220   8.541   9.193   3.588 -0.2046  0.0210 -0.4932
 2296SSM    T1A26221   8.134   9.202   3.598  0.2369 -0.4272  0.1682
 2296SSM    C2A26222   8.231   9.416   3.951  0.1880  0.0077 -0.0521
 2296SSM    C3A26223   8.365   9.462   4.440  0.0845  0.0926 -0.0682
 2296SSM    C4A26224   8.451   9.510   4.904  0.2424  0.0624 -0.2067
 2296SSM    C1B26225   8.899   9.278   3.862  0.2973  0.2807 -0.3584
 2296SSM    C2B26226   9.159   9.194   4.253  0.1258  0.0774  0.0778
 2296SSM    C3B26227   9.295   9.148   4.729  0.0302 -0.0041  0.2155
 2296SSM    C4B26228   9.045   8.898   5.025  0.0537  0.3532 -0.1758
 2297SSM    NC326229   5.097  15.232   3.499  0.1754  0.2602  0.1171
 2297SSM    PO426230   5.060  14.919   3.277 -0.0337  0.1350  0.0648
 2297SSM    OH126231   5.306  14.687   3.424 -0.0227  0.0522  0.0533
 2297SSM    AM226232   5.334  14.814   3.677 -0.0507 -0.1768 -0.2978
 2297SSM    T1A26233   5.621  14.616   3.510 -0.1576  0.1285 -0.3988
 2297SSM    C2A26234   5.714  14.745   3.877  0.1100  0.0599  0.0783
 2297SSM    C3A26235   5.836  14.799   4.278 -0.0038 -0.2536  0.2459
 2297SSM    C4A26236   6.190  15.093   4.329 -0.3806  0.1941 -0.0554
 2297SSM    C1B26237   5.251  14.879   4.082 -0.2122  0.2340  0.0089
 2297SSM    C2B26238   5.409  14.808   4.581 -0.0307 -0.0609 -0.0477
 2297SSM    C3B26239   5.536  14.743   5.033  0.2005 -0.1847  0.1228
 2297SSM    C4B26240   5.817  14.470   5.372 -0.2238  0.0054  0.0337
 2298SSM    NC326241   5.265   6.727   3.083  0.3024 -0.3046 -0.2660
 2298SSM    PO426242   4.930   6.941   3.143 -0.3750 -0.0492  0.0927
 2298SSM    OH126243   4.963   7.326   3.250 -0.2533  0.1710  0.1977
 2298SSM    AM226244   5.063   7.229   3.516 -0.2029  0.1327  0.0753
 2298SSM    T1A26245   4.872   7.654   3.367 -0.1243  0.0144 -0.2308
 2298SSM    C2A26246   4.800   7.895   3.651  0.2072  0.2415 -0.1421
 2298SSM    C3A26247   4.929   7.931   4.149  0.3228  0.0472 -0.0241
 2298SSM    C4A26248   4.938   8.083   4.601  0.1322  0.0654 -0.2609
 2298SSM    C1B26249   5.150   7.199   3.891  0.1184  0.0477  0.0702
 2298SSM    C2B26250   4.839   7.400   4.357 -0.1008  0.1230 -0.2631
 2298SSM    C3B26251   4.628   7.667   4.741 -0.2097  0.0309 -0.0456
 2298SSM    C4B26252   4.549   8.156   4.925  0.1493 -0.0915 -0.1760
 2299SSM    NC326253  15.245  11.624   3.042  0.3882  0.1594  0.1453
 2299SSM    PO426254  14.876  11.713   3.172 -0.0609  0.1348  0.0760
 2299SSM    OH126255  14.967  11.444   3.401 -0.1031 -0.2435  0.3338
 2299SSM    AM226256  14.805  11.534   3.654  0.0970  0.3734 -0.1912
 2299SSM    T1A26257  15.148  11.254   3.600 -0.3405 -0.1365  0.0339
 2299SSM    C2A26258  15.206  11.177   3.966  0.2400 -0.1259  0.0155
 2299SSM    C3A26259  15.078  11.163   4.450  0.0401 -0.0806 -0.0311
 2299SSM    C4A26260  14.950  11.497   4.783  0.1320  0.2135 -0.0229
 2299SSM    C1B26261  14.725  11.438   3.997  0.0105  0.2192  0.0037
 2299SSM    C2B26262  14.573  11.204   4.449 -0.0514  0.2326  0.2057
 2299SSM    C3B26263  14.590  11.191   4.935  0.1259 -0.2467  0.1426
 2299SSM    C4B26264  14.646  11.149   5.402 -0.1850  0.3600 -0.0154
 2300SSM    NC326265  25.406   6.512   4.036 -0.1414 -0.0277 -0.1350
 2300SSM    PO426266  25.358   6.138   3.907 -0.1055 -0.1334 -0.4172
 2300SSM    OH126267  25.393   6.042   4.271  0.2811 -0.0388 -0.1800
 2300SSM    AM226268  25.218   6.285   4.379 -0.0220  0.0470  0.0274
 2300SSM    T1A26269  25.344   5.851   4.546 -0.2773  0.0473 -0.0282
 2300SSM    C2A26270  25.282   5.876   4.937  0.0384  0.2834  0.0490
 2300SSM    C3A26271  25.095   5.932   5.402 -0.3046 -0.2347  0.2265
 2300SSM    C4A26272  24.976   5.968   5.853  0.1108 -0.2232  0.3682
 2300SSM    C1B26273  25.156   6.559   4.702 -0.0375  0.0533  0.0446
 2300SSM    C2B26274  25.024   6.840   5.077 -0.2634  0.0073 -0.4538
 2300SSM    C3B26275  24.946   6.757   5.526 -0.2936  0.2627 -0.3853
 2300SSM    C4B26276  24.620   6.738   5.925  0.1727  0.4126 -0.2835
 2301SSM    NC326277  26.146   5.843   3.235 -0.0772 -0.2267  0.0494
 2301SSM    PO426278  26.154   6.006   3.612  0.2058  0.0608  0.2086
 2301SSM    OH126279  26.403   6.219   3.815  0.1993 -0.4453  0.2649
 2301SSM    AM226280  26.211   6.225   4.040 -0.1153  0.0661 -0.3193
 2301SSM    T1A26281  26.587   6.431   3.980  0.1190 -0.0879 -0.3080
 2301SSM    C2A26282  26.752   6.563   4.285  0.1006 -0.2097  0.0466
 2301SSM    C3A26283  26.766   6.602   4.767 -0.1810 -0.1574  0.0396
 2301SSM    C4A26284  26.552   6.711   5.246 -0.0381  0.0858  0.0253
 2301SSM    C1B26285  26.266   6.344   4.414  0.0128 -0.3699 -0.0498
 2301SSM    C2B26286  26.200   6.353   4.893  0.0569 -0.1615  0.0282
 2301SSM    C3B26287  25.904   6.481   5.276  0.0538 -0.0588  0.2290
 2301SSM    C4B26288  25.708   6.405   5.736 -0.2930  0.1089  0.4572
 2302SSM    NC326289  18.344  19.822   3.394  0.0621  0.0647  0.0782
 2302SSM    PO426290  18.097  19.997   3.653  0.0421 -0.1505  0.1316
 2302SSM    OH126291  18.329  19.959   3.983  0.1609  0.1376  0.2319
 2302SSM    AM226292  18.068  19.822   4.066 -0.0101 -0.2322  0.5460
 2302SSM    T1A26293  18.435  19.865   4.313 -0.1396  0.0847  0.2384
 2302SSM    C2A26294  18.390  19.593   4.644  0.1781 -0.0268  0.1979
 2302SSM    C3A26295  18.273  19.407   5.067  0.2624 -0.0305 -0.0090
 2302SSM    C4A26296  18.250  19.202   5.542 -0.2198  0.1290 -0.0902
 2302SSM    C1B26297  17.948  19.721   4.407 -0.0813  0.1961  0.0179
 2302SSM    C2B26298  17.879  19.748   4.941 -0.3659  0.2291 -0.0978
 2302SSM    C3B26299  17.918  19.570   5.410  0.4105  0.2831 -0.0560
 2302SSM    C4B26300  18.055  19.553   5.879  0.2383  0.0181 -0.0300
 2303SSM    NC326301   1.381   6.628   3.421 -0.5365 -0.1012 -0.0921
 2303SSM    PO426302   1.271   6.802   3.759  0.1067 -0.0402 -0.3407
 2303SSM    OH126303   1.091   6.574   3.969  0.2364  0.1406  0.0254
 2303SSM    AM226304   1.329   6.414   4.049 -0.4623  0.2230 -0.1185
 2303SSM    T1A26305   0.973   6.485   4.281  0.1531 -0.0666 -0.0751
 2303SSM    C2A26306   0.787   6.449   4.670  0.0865  0.1234  0.3145
 2303SSM    C3A26307   0.790   6.389   5.138 -0.0665 -0.5183 -0.2257
 2303SSM    C4A26308   0.959   6.397   5.597  0.3834 -0.0922  0.2935
 2303SSM    C1B26309   1.633   6.529   4.285  0.3934 -0.1630 -0.2760
 2303SSM    C2B26310   1.630   6.747   4.763 -0.0494  0.0488 -0.1773
 2303SSM    C3B26311   1.764   6.842   5.258 -0.2649 -0.3036  0.2767
 2303SSM    C4B26312   1.981   6.837   5.676  0.1900  0.0484 -0.1848
 2304SSM    NC326313  22.204   5.030   3.673 -0.1077 -0.0751  0.1856
 2304SSM    PO426314  22.598   4.988   3.636 -0.0020  0.0977  0.1788
 2304SSM    OH126315  22.680   5.005   4.008  0.1028 -0.2229  0.0974
 2304SSM    AM226316  22.441   4.801   4.052  0.0402 -0.2503 -0.1420
 2304SSM    T1A26317  22.758   4.991   4.324 -0.1861 -0.0036 -0.2974
 2304SSM    C2A26318  22.608   5.115   4.684  0.0504  0.2468 -0.1558
 2304SSM    C3A26319  22.357   5.453   4.980 -0.0698  0.0246  0.2638
 2304SSM    C4A26320  22.152   5.641   5.410  0.3543 -0.0496  0.1638
 2304SSM    C1B26321  22.335   4.630   4.363 -0.0290  0.2411  0.0430
 2304SSM    C2B26322  22.290   4.662   4.861  0.0561 -0.1938 -0.0814
 2304SSM    C3B26323  21.927   4.749   5.188  0.1890  0.0127 -0.1255
 2304SSM    C4B26324  21.540   5.040   5.445 -0.1732 -0.0659  0.0390
 2305SSM    NC326325  24.377   8.796   2.897  0.1552  0.1170 -0.0513
 2305SSM    PO426326  24.398   8.655   3.252 -0.0444 -0.1264 -0.2223
 2305SSM    OH126327  24.339   8.818   3.585  0.2196 -0.0862 -0.1381
 2305SSM    AM226328  24.599   8.719   3.713 -0.0482  0.0968 -0.2301
 2305SSM    T1A26329  24.178   8.821   3.893 -0.0792 -0.3570 -0.0906
 2305SSM    C2A26330  23.951   8.791   4.210  0.0868 -0.0403  0.1127
 2305SSM    C3A26331  23.852   8.792   4.669 -0.1464 -0.0475 -0.1832
 2305SSM    C4A26332  23.826   8.833   5.120  0.2016  0.1507 -0.1430
 2305SSM    C1B26333  24.830   8.522   3.953 -0.1045 -0.2832  0.0081
 2305SSM    C2B26334  25.317   8.563   4.179  0.0852 -0.0974 -0.1960
 2305SSM    C3B26335  25.379   8.501   4.610  0.2093 -0.1485  0.1956
 2305SSM    C4B26336  25.595   8.307   5.000  0.0221  0.0784  0.2460
 2306SSM    NC326337   2.802  18.243   3.529  0.2599 -0.2519  0.0162
 2306SSM    PO426338   2.955  18.580   3.523 -0.0017  0.1998 -0.1148
 2306SSM    OH126339   2.920  18.654   3.884  0.2611 -0.0725  0.0456
 2306SSM    AM226340   2.675  18.468   3.910 -0.2076  0.1239 -0.0638
 2306SSM    T1A26341   2.918  18.614   4.222  0.0032 -0.0771 -0.0337
 2306SSM    C2A26342   2.802  18.641   4.595  0.0053 -0.2079 -0.1142
 2306SSM    C3A26343   2.899  18.643   5.130 -0.0679  0.2294 -0.3598
 2306SSM    C4A26344   2.757  18.802   5.547 -0.0659 -0.2429 -0.0666
 2306SSM    C1B26345   2.486  18.380   4.206  0.2049 -0.0996 -0.1278
 2306SSM    C2B26346   2.382  18.795   4.590 -0.3687  0.0106  0.2035
 2306SSM    C3B26347   2.446  19.016   5.017  0.2765 -0.0280  0.1828
 2306SSM    C4B26348   2.485  19.369   5.371  0.2578 -0.1633 -0.2328
 2307SSM    NC326349  16.967  24.198   3.478 -0.4503 -0.1396  0.0365
 2307SSM    PO426350  16.630  24.089   3.661 -0.2240 -0.0088  0.1101
 2307SSM    OH126351  16.442  24.194   4.030 -0.0473 -0.2929  0.2478
 2307SSM    AM226352  16.678  24.004   4.138  0.2015 -0.0040 -0.0526
 2307SSM    T1A26353  16.354  24.348   4.314 -0.0294  0.0645 -0.0815
 2307SSM    C2A26354  16.286  24.618   4.613 -0.0701  0.4018  0.0012
 2307SSM    C3A26355  16.028  24.808   4.974  0.0757 -0.0780 -0.1294
 2307SSM    C4A26356  16.240  24.961   5.361  0.0891 -0.0447 -0.2286
 2307SSM    C1B26357  16.817  23.857   4.408 -0.2227  0.1594  0.0679
 2307SSM    C2B26358  17.224  23.596   4.622  0.0961 -0.0686  0.0612
 2307SSM    C3B26359  17.442  23.307   4.985  0.0598 -0.1604  0.2081
 2307SSM    C4B26360  17.723  22.921   5.154  0.1453 -0.4258 -0.3988
 2308SSM    NC326361   3.608   3.712   2.716 -0.1912 -0.0228 -0.1592
 2308SSM    PO426362   3.661   3.905   3.111  0.0705  0.2074  0.0825
 2308SSM    OH126363   3.656   4.003   3.457 -0.0006 -0.0585  0.0607
 2308SSM    AM226364   3.967   4.067   3.447  0.4711  0.0735 -0.2564
 2308SSM    T1A26365   3.690   4.022   3.808  0.1207 -0.1718  0.2832
 2308SSM    C2A26366   3.749   4.140   4.161 -0.4411 -0.0068  0.0885
 2308SSM    C3A26367   3.537   4.090   4.629 -0.0327  0.1001  0.3156
 2308SSM    C4A26368   3.565   4.089   5.108 -0.0914 -0.0953  0.0843
 2308SSM    C1B26369   4.125   4.161   3.774 -0.0657 -0.0435 -0.0021
 2308SSM    C2B26370   4.249   4.408   4.158 -0.0927  0.1184  0.3739
 2308SSM    C3B26371   4.386   4.528   4.591  0.2265 -0.2363  0.1336
 2308SSM    C4B26372   4.635   4.685   5.063  0.2956  0.4247 -0.4234
 2309SSM    NC326373   4.269  27.035   3.634 -0.0963  0.1221  0.0684
 2309SSM    PO426374   4.536  26.788   3.789 -0.0248 -0.1924 -0.2844
 2309SSM    OH126375   4.849  26.900   4.035  0.1607  0.0368 -0.1549
 2309SSM    AM226376   4.623  27.078   4.176  0.1472  0.1811  0.1300
 2309SSM    T1A26377   4.983  26.969   4.334 -0.1837 -0.2336  0.2972
 2309SSM    C2A26378   4.994  26.991   4.758 -0.0514 -0.0779  0.0869
 2309SSM    C3A26379   4.932  27.166   5.236  0.1103  0.0871  0.1296
 2309SSM    C4A26380   5.003  27.407   5.668  0.0357  0.0479  0.0506
 2309SSM    C1B26381   4.638  27.400   4.437 -0.0026 -0.1228  0.0021
 2309SSM    C2B26382   4.727  27.628   4.917  0.2036  0.2204 -0.0740
 2309SSM    C3B26383   4.681  27.641   5.395 -0.0702  0.0475  0.1596
 2309SSM    C4B26384   4.473  27.674   5.825 -0.3796  0.3188  0.1707
 2310SSM    NC326385  15.904  26.381   4.223  0.0434 -0.0387 -0.1741
 2310SSM    PO426386  15.616  26.454   3.964  0.1357 -0.0592  0.1292
 2310SSM    OH126387  15.437  26.740   4.097  0.1780 -0.0512 -0.1939
 2310SSM    AM226388  15.476  26.629   4.380 -0.2864  0.1088 -0.0094
 2310SSM    T1A26389  15.474  27.038   4.270  0.1211 -0.0536  0.0303
 2310SSM    C2A26390  15.522  27.033   4.705  0.2794  0.1259 -0.0585
 2310SSM    C3A26391  15.625  26.882   5.116  0.2312  0.0608  0.3772
 2310SSM    C4A26392  15.493  26.948   5.569 -0.1559  0.0204  0.1007
 2310SSM    C1B26393  15.687  26.572   4.699 -0.0059  0.0049 -0.2191
 2310SSM    C2B26394  15.890  26.377   5.173 -0.2626 -0.1345  0.1467
 2310SSM    C3B26395  16.169  26.294   5.544  0.0410 -0.1376 -0.2112
 2310SSM    C4B26396  16.599  26.161   5.795 -0.0567  0.0788  0.0884
 2311SSM    NC326397  10.413  10.446   3.518  0.2144 -0.1288  0.0426
 2311SSM    PO426398  10.302  10.255   3.205 -0.2689 -0.0507  0.1535
 2311SSM    OH126399   9.993  10.173   3.426 -0.2693  0.2798  0.0175
 2311SSM    AM226400  10.163  10.006   3.619 -0.2876  0.0430 -0.0039
 2311SSM    T1A26401   9.745  10.155   3.662 -0.1545 -0.0843  0.1807
 2311SSM    C2A26402   9.663   9.995   4.027 -0.1181 -0.1410  0.2390
 2311SSM    C3A26403   9.633   9.983   4.512 -0.0028  0.2254  0.3369
 2311SSM    C4A26404   9.568  10.120   4.913  0.0231 -0.0853  0.1316
 2311SSM    C1B26405  10.231   9.788   3.895  0.2024  0.0078  0.0354
 2311SSM    C2B26406  10.472   9.491   4.184 -0.1342 -0.1497 -0.1300
 2311SSM    C3B26407  10.485   9.247   4.631  0.1133  0.0670  0.1339
 2311SSM    C4B26408  10.491   8.832   4.943 -0.0298 -0.1389  0.2672
 2312SSM    NC326409  13.710  20.226   3.009 -0.2021  0.0605 -0.0035
 2312SSM    PO426410  14.008  20.413   3.188 -0.0744 -0.2534 -0.3364
 2312SSM    OH126411  13.963  20.566   3.513 -0.2946  0.0235  0.2491
 2312SSM    AM226412  14.029  20.316   3.651 -0.5633 -0.0728  0.1502
 2312SSM    T1A26413  13.725  20.620   3.737 -0.0568  0.0327 -0.0900
 2312SSM    C2A26414  13.632  20.523   4.118  0.0869  0.0691  0.1305
 2312SSM    C3A26415  13.512  20.351   4.603 -0.1463  0.1489  0.2710
 2312SSM    C4A26416  13.477  20.251   5.080  0.1565  0.1097 -0.3079
 2312SSM    C1B26417  13.965  20.177   3.954  0.0913 -0.1000  0.1834
 2312SSM    C2B26418  13.952  20.206   4.463  0.1088  0.1810  0.0263
 2312SSM    C3B26419  13.918  20.103   4.914 -0.0649  0.2151  0.2442
 2312SSM    C4B26420  13.958  19.984   5.332 -0.2236 -0.0155  0.0796
 2313SSM    NC326421  13.625   8.120   3.582  0.1432 -0.0180  0.0180
 2313SSM    PO426422  13.407   7.888   3.368  0.2748 -0.1286 -0.0946
 2313SSM    OH126423  13.483   7.724   3.706 -0.3145  0.1703 -0.1989
 2313SSM    AM226424  13.248   7.825   3.847  0.5537 -0.1815  0.2833
 2313SSM    T1A26425  13.627   7.685   4.018  0.0824  0.2810 -0.0242
 2313SSM    C2A26426  13.546   7.461   4.364  0.2639 -0.0137  0.2977
 2313SSM    C3A26427  13.740   7.206   4.737 -0.0073 -0.1228  0.2576
 2313SSM    C4A26428  14.097   6.915   4.845 -0.2560  0.1792 -0.0654
 2313SSM    C1B26429  12.941   7.720   4.083  0.2804  0.1246  0.0712
 2313SSM    C2B26430  12.815   7.590   4.574 -0.1004  0.0266  0.1940
 2313SSM    C3B26431  12.802   7.620   4.999 -0.0048 -0.1036  0.2489
 2313SSM    C4B26432  12.927   7.334   5.448 -0.0756  0.2804  0.4818
 2314SSM    NC326433  14.045  16.061   3.370  0.2162  0.2105  0.0838
 2314SSM    PO426434  13.851  16.302   3.597 -0.2177 -0.0931  0.0561
 2314SSM    OH126435  13.697  16.209   3.902 -0.2580 -0.0981 -0.3278
 2314SSM    AM226436  13.821  15.953   3.911  0.3270 -0.0610 -0.0184
 2314SSM    T1A26437  13.777  16.251   4.234 -0.1422  0.1206  0.0187
 2314SSM    C2A26438  13.773  16.032   4.580 -0.0685 -0.1405 -0.0444
 2314SSM    C3A26439  13.753  15.780   5.059 -0.0002 -0.0290 -0.2956
 2314SSM    C4A26440  13.462  15.698   5.448  0.0942  0.1663 -0.1294
 2314SSM    C1B26441  13.912  15.756   4.200  0.1367 -0.0990 -0.0424
 2314SSM    C2B26442  13.957  15.600   4.637 -0.0663  0.1564  0.1385
 2314SSM    C3B26443  13.821  15.279   5.038 -0.1270  0.0983  0.0152
 2314SSM    C4B26444  13.933  14.931   5.379 -0.2505  0.2443 -0.1313
 2315SSM    NC326445  21.545  17.574   3.335  0.1317  0.1758  0.2881
 2315SSM    PO426446  21.475  17.225   3.071 -0.0441 -0.2870 -0.3788
 2315SSM    OH126447  21.668  17.010   3.247  0.0052  0.1824  0.2231
 2315SSM    AM226448  21.922  17.158   3.337  0.2893  0.2514  0.0817
 2315SSM    T1A26449  21.672  16.868   3.568 -0.0165 -0.3270 -0.2152
 2315SSM    C2A26450  21.645  16.780   4.015 -0.1494 -0.0226 -0.1086
 2315SSM    C3A26451  21.521  16.832   4.467  0.1863  0.0431 -0.0757
 2315SSM    C4A26452  21.429  17.023   4.866 -0.1212 -0.0523  0.0930
 2315SSM    C1B26453  22.077  17.339   3.662  0.1503 -0.4143 -0.1075
 2315SSM    C2B26454  22.094  17.676   4.084  0.0795 -0.2312  0.1145
 2315SSM    C3B26455  22.094  18.092   4.353 -0.1630 -0.4445  0.1366
 2315SSM    C4B26456  21.909  18.491   4.565 -0.0471  0.2109  0.2247
 2316SSM    NC326457   0.701   6.263   3.831 -0.0716 -0.1282  0.1406
 2316SSM    PO426458   0.371   6.301   3.599 -0.0659  0.1859 -0.1662
 2316SSM    OH126459   0.310   5.913   3.654 -0.0177  0.0572  0.1439
 2316SSM    AM226460   0.264   6.044   3.935  0.0290  0.0501 -0.0624
 2316SSM    T1A26461   0.294   5.602   3.824 -0.3328  0.0530 -0.2520
 2316SSM    C2A26462   0.232   5.574   4.251 -0.1142  0.2294 -0.1650
 2316SSM    C3A26463   0.260   5.627   4.737 -0.0143 -0.0461  0.0627
 2316SSM    C4A26464   0.289   5.633   5.230 -0.4084  0.2833 -0.3156
 2316SSM    C1B26465   0.496   6.051   4.298 -0.1386  0.2237 -0.1213
 2316SSM    C2B26466   0.471   6.086   4.810 -0.0273  0.2356  0.0002
 2316SSM    C3B26467   0.350   6.149   5.263 -0.1747  0.0623 -0.2786
 2316SSM    C4B26468   0.346   6.484   5.638 -0.1875 -0.2274 -0.2885
 2317SSM    NC326469  12.630   7.835   3.699  0.1144 -0.1224  0.3816
 2317SSM    PO426470  12.620   8.242   3.887  0.1944  0.1252  0.2187
 2317SSM    OH126471  12.924   8.281   4.139 -0.1140  0.0862 -0.0989
 2317SSM    AM226472  12.756   8.132   4.344 -0.0611 -0.1430  0.0567
 2317SSM    T1A26473  13.059   8.422   4.411 -0.1313 -0.1969  0.0470
 2317SSM    C2A26474  12.948   8.349   4.785  0.0857  0.1279 -0.1773
 2317SSM    C3A26475  12.768   8.093   5.097  0.0830 -0.0572  0.1502
 2317SSM    C4A26476  12.650   7.963   5.576 -0.2216  0.1534  0.2975
 2317SSM    C1B26477  12.486   8.160   4.650 -0.0211 -0.1340 -0.2611
 2317SSM    C2B26478  12.179   8.003   5.084 -0.4667  0.1930  0.2701
 2317SSM    C3B26479  11.786   8.089   5.306 -0.4343  0.0658 -0.0391
 2317SSM    C4B26480  11.457   7.865   5.507  0.0952 -0.1541  0.0418
 2318SSM    NC326481  20.688  20.504   3.600  0.2981 -0.1063 -0.0370
 2318SSM    PO426482  20.931  20.847   3.668  0.4557  0.3520  0.0817
 2318SSM    OH126483  20.740  20.989   3.947  0.0537  0.1033 -0.1923
 2318SSM    AM226484  20.770  20.755   4.121  0.0634  0.3443 -0.0290
 2318SSM    T1A26485  20.783  21.193   4.239  0.1996  0.4995 -0.0896
 2318SSM    C2A26486  20.806  21.269   4.638 -0.0608 -0.0852  0.0028
 2318SSM    C3A26487  20.841  21.495   5.063  0.3058  0.3987 -0.0520
 2318SSM    C4A26488  21.081  21.531   5.532  0.0207  0.1233 -0.1810
 2318SSM    C1B26489  20.707  20.705   4.502 -0.1203  0.0499 -0.1903
 2318SSM    C2B26490  20.504  20.702   5.007 -0.0506 -0.0837 -0.1228
 2318SSM    C3B26491  20.293  20.660   5.455 -0.1256  0.2739 -0.2970
 2318SSM    C4B26492  20.103  20.584   5.906  0.0505 -0.1634  0.0657
 2319SSM    NC326493  25.480   4.970   3.724  0.0417 -0.2302 -0.0038
 2319SSM    PO426494  25.281   5.286   3.852  0.2064 -0.0986  0.2685
 2319SSM    OH126495  25.444   5.592   4.081 -0.0495  0.2173  0.0082
 2319SSM    AM226496  25.188   5.571   4.243 -0.0607  0.0020  0.0986
 2319SSM    T1A26497  25.612   5.608   4.370 -0.1617 -0.1756  0.2291
 2319SSM    C2A26498  25.857   5.661   4.639  0.3563 -0.1683 -0.0153
 2319SSM    C3A26499  25.766   5.497   5.074  0.2074 -0.0465 -0.0035
 2319SSM    C4A26500  26.038   5.268   5.419  0.1698 -0.1774  0.0133
 2319SSM    C1B26501  24.943   5.672   4.597  0.1903  0.3012 -0.1613
 2319SSM    C2B26502  24.704   5.843   5.039  0.0559 -0.2475  0.5090
 2319SSM    C3B26503  24.636   5.805   5.442  0.0746 -0.0532 -0.3332
 2319SSM    C4B26504  24.402   5.765   5.814  0.0144 -0.3220 -0.1432
 2320SSM    NC326505   0.337  27.484   3.228  0.1740 -0.0742 -0.1510
 2320SSM    PO426506   0.247  27.850   3.376  0.1316  0.0077 -0.1020
 2320SSM    OH126507   0.355  27.970   3.692  0.2227 -0.1642  0.2253
 2320SSM    AM226508   0.200  27.748   3.816  0.0065  0.0762  0.1051
 2320SSM    T1A26509   0.476  28.089   3.974  0.2842 -0.0960 -0.0148
 2320SSM    C2A26510   0.621  28.069   4.380 -0.0680  0.5591 -0.1843
 2320SSM    C3A26511   0.818  28.147   4.839  0.1356 -0.1804 -0.0782
 2320SSM    C4A26512   1.182  28.387   4.986 -0.2193  0.0576  0.3424
 2320SSM    C1B26513   0.075  27.742   4.232  0.1235 -0.0871  0.0807
 2320SSM    C2B26514   0.166  27.955   4.704 -0.2599  0.0914  0.3964
 2320SSM    C3B26515   0.066  27.994   5.132  0.0574 -0.0835  0.1001
 2320SSM    C4B26516  -0.306  27.713   5.277 -0.1917 -0.0304  0.0962
 2321SSM    NC326517  24.491  10.876   3.510 -0.2280 -0.2008 -0.0567
 2321SSM    PO426518  24.237  10.982   3.816 -0.0363 -0.0452  0.1528
 2321SSM    OH126519  23.969  11.063   4.019  0.0187 -0.2678  0.3667
 2321SSM    AM226520  23.957  10.769   4.079 -0.1290 -0.0079 -0.0393
 2321SSM    T1A26521  23.691  11.167   4.204  0.4275  0.0533 -0.1613
 2321SSM    C2A26522  23.435  11.183   4.538  0.0568  0.0874 -0.0331
 2321SSM    C3A26523  23.329  11.033   4.952 -0.1158  0.0567 -0.3788
 2321SSM    C4A26524  23.177  10.826   5.348  0.1999 -0.2088  0.0100
 2321SSM    C1B26525  24.185  10.579   4.212  0.2682 -0.0490 -0.1478
 2321SSM    C2B26526  24.547  10.365   4.513  0.1222 -0.1387 -0.2531
 2321SSM    C3B26527  24.597  10.008   4.824 -0.2409 -0.0917 -0.1184
 2321SSM    C4B26528  24.762   9.766   5.188  0.2592 -0.0480  0.1787
 2322SSM    NC326529  12.393   0.031   3.257 -0.0039 -0.1101  0.1148
 2322SSM    PO426530  12.087  -0.090   3.502 -0.0952  0.0324 -0.1043
 2322SSM    OH126531  12.064  -0.136   3.886  0.0354  0.1240 -0.0485
 2322SSM    AM226532  11.841   0.045   3.935  0.1638  0.1040 -0.1131
 2322SSM    T1A26533  12.100  -0.084   4.238 -0.1764  0.4123 -0.1377
 2322SSM    C2A26534  12.114  -0.257   4.562  0.2603  0.1960 -0.2491
 2322SSM    C3A26535  12.035  -0.159   5.026  0.1340 -0.1507  0.1931
 2322SSM    C4A26536  11.904   0.002   5.400 -0.3589 -0.1027 -0.1443
 2322SSM    C1B26537  11.761   0.261   4.215  0.1839 -0.0057 -0.0549
 2322SSM    C2B26538  11.630   0.370   4.682  0.0439 -0.0129 -0.0481
 2322SSM    C3B26539  11.587   0.380   5.202 -0.2079  0.5200 -0.0429
 2322SSM    C4B26540  11.463   0.345   5.670  0.0140  0.0059 -0.1751
 2323SSM    NC326541  19.241  20.075   3.936  0.0222 -0.0299  0.2712
 2323SSM    PO426542  19.478  19.888   3.681  0.0856 -0.0902 -0.1790
 2323SSM    OH126543  19.693  19.686   3.923 -0.4141 -0.0157 -0.1265
 2323SSM    AM226544  19.677  19.922   4.125 -0.1138 -0.0165  0.0779
 2323SSM    T1A26545  19.721  19.471   4.216 -0.1130 -0.1588 -0.1172
 2323SSM    C2A26546  19.752  19.353   4.595 -0.1938  0.1023 -0.0285
 2323SSM    C3A26547  19.723  19.285   5.049  0.0757  0.0493  0.1185
 2323SSM    C4A26548  19.522  19.312   5.512  0.0087 -0.2499 -0.2301
 2323SSM    C1B26549  19.507  20.122   4.386 -0.1468  0.3504  0.1894
 2323SSM    C2B26550  19.379  20.214   4.864  0.2412 -0.1164 -0.0722
 2323SSM    C3B26551  19.452  20.184   5.300 -0.2042  0.1008 -0.0090
 2323SSM    C4B26552  19.328  20.171   5.771  0.2245  0.1344 -0.0463
 2324SSM    NC326553  19.594   1.074   3.560 -0.0420 -0.1486  0.2123
 2324SSM    PO426554  19.234   1.263   3.622  0.2575  0.1414 -0.2099
 2324SSM    OH126555  19.155   1.119   3.945 -0.0715  0.0376  0.1373
 2324SSM    AM226556  19.294   1.340   4.102  0.2548  0.0508 -0.1638
 2324SSM    T1A26557  19.102   0.899   4.209  0.0029  0.2021  0.1894
 2324SSM    C2A26558  19.154   0.957   4.595 -0.0195  0.0788  0.0130
 2324SSM    C3A26559  19.304   0.905   5.090  0.2454  0.1011 -0.4028
 2324SSM    C4A26560  19.481   0.911   5.552  0.0415  0.2005  0.0676
 2324SSM    C1B26561  19.447   1.444   4.442  0.0117  0.0878  0.4593
 2324SSM    C2B26562  19.755   1.512   4.817 -0.0767  0.2332  0.1281
 2324SSM    C3B26563  20.091   1.483   5.150 -0.0790 -0.3615 -0.2778
 2324SSM    C4B26564  20.215   1.477   5.657 -0.0720  0.1800 -0.1080
 2325SSM    NC326565  15.040  27.047   4.036 -0.0797  0.0098  0.2262
 2325SSM    PO426566  15.243  27.292   3.934  0.1235 -0.3989  0.0957
 2325SSM    OH126567  15.398  27.449   4.237  0.2480  0.0476  0.1898
 2325SSM    AM226568  15.160  27.483   4.401  0.0099  0.0163  0.0869
 2325SSM    T1A26569  15.603  27.489   4.526  0.0822  0.0230  0.0083
 2325SSM    C2A26570  15.853  27.518   4.841 -0.2155 -0.1600  0.2436
 2325SSM    C3A26571  15.942  27.693   5.283 -0.1181  0.2054 -0.3084
 2325SSM    C4A26572  15.825  27.869   5.669 -0.0879 -0.2631  0.0150
 2325SSM    C1B26573  15.119  27.583   4.717  0.0284  0.1202  0.0428
 2325SSM    C2B26574  15.032  27.594   5.233 -0.0104  0.0055 -0.1276
 2325SSM    C3B26575  15.175  27.828   5.608  0.1494 -0.1153  0.0123
 2325SSM    C4B26576  15.442  28.208   5.657  0.0848  0.2555 -0.1303
 2326SSM    NC326577  21.872  18.187   2.807 -0.0790  0.1907  0.1670
 2326SSM    PO426578  21.580  18.098   3.074 -0.0891 -0.0851 -0.0446
 2326SSM    OH126579  21.626  18.023   3.439  0.0929  0.3286  0.1744
 2326SSM    AM226580  21.361  18.138   3.502 -0.0998 -0.1296  0.4542
 2326SSM    T1A26581  21.644  18.014   3.784  0.3482 -0.1072 -0.1493
 2326SSM    C2A26582  21.640  18.077   4.173  0.0649 -0.0900 -0.0418
 2326SSM    C3A26583  21.704  18.041   4.660 -0.0957 -0.0557  0.0450
 2326SSM    C4A26584  22.082  18.127   4.959 -0.2575 -0.2505 -0.0147
 2326SSM    C1B26585  21.319  18.327   3.822 -0.0822  0.1054 -0.0091
 2326SSM    C2B26586  21.570  18.556   4.232  0.0143  0.0324  0.3962
 2326SSM    C3B26587  21.660  18.973   4.345 -0.0342  0.0229  0.1375
 2326SSM    C4B26588  21.582  19.457   4.440  0.0656  0.0206 -0.2307
 2327SSM    NC326589  12.771  11.219   3.623  0.1309 -0.1543 -0.3309
 2327SSM    PO426590  13.167  11.240   3.495  0.1451 -0.0033 -0.1065
 2327SSM    OH126591  13.514  11.238   3.627  0.4194  0.2068  0.1924
 2327SSM    AM226592  13.372  11.006   3.811  0.1570  0.2149 -0.0684
 2327SSM    T1A26593  13.656  11.397   3.888  0.0881  0.2480 -0.1925
 2327SSM    C2A26594  13.626  11.571   4.172  0.0489  0.3524 -0.0600
 2327SSM    C3A26595  13.538  11.554   4.629  0.0940 -0.1227  0.1914
 2327SSM    C4A26596  13.365  11.815   5.106 -0.2574  0.0465  0.1949
 2327SSM    C1B26597  13.291  10.977   4.217  0.2498  0.1073 -0.2178
 2327SSM    C2B26598  13.326  10.792   4.709  0.2054 -0.1532  0.3539
 2327SSM    C3B26599  13.319  10.348   4.900 -0.0849  0.0764 -0.3119
 2327SSM    C4B26600  13.535   9.987   5.149 -0.0209 -0.0166 -0.0421
 2328SSM    NC326601   3.893   6.694   3.012  0.0361  0.1725  0.1688
 2328SSM    PO426602   3.627   6.897   3.217 -0.2507 -0.3102 -0.1329
 2328SSM    OH126603   3.430   6.738   3.479 -0.0599  0.1073 -0.0981
 2328SSM    AM226604   3.644   6.715   3.703 -0.3671  0.4199 -0.2404
 2328SSM    T1A26605   3.256   6.688   3.782 -0.0734  0.1529 -0.1754
 2328SSM    C2A26606   3.116   6.708   4.210  0.1275  0.2287 -0.2444
 2328SSM    C3A26607   3.161   6.725   4.695  0.0829 -0.0919  0.0823
 2328SSM    C4A26608   3.213   6.917   5.148 -0.1875  0.2482 -0.2146
 2328SSM    C1B26609   3.790   6.870   4.000  0.0396  0.0058  0.0673
 2328SSM    C2B26610   3.580   6.745   4.432 -0.3975 -0.4742 -0.1506
 2328SSM    C3B26611   3.606   6.635   4.902 -0.0435 -0.5073  0.1167
 2328SSM    C4B26612   3.445   6.491   5.350  0.1238 -0.2108 -0.0174
 2329SSM    NC326613   8.229  15.923   3.205  0.3206 -0.1364 -0.1014
 2329SSM    PO426614   8.171  15.560   3.344 -0.1641 -0.1170 -0.1310
 2329SSM    OH126615   8.268  15.368   3.636 -0.2832 -0.0602  0.2398
 2329SSM    AM226616   8.050  15.459   3.803  0.0757 -0.0731  0.0772
 2329SSM    T1A26617   8.405  15.222   3.917 -0.2230  0.1047  0.3481
 2329SSM    C2A26618   8.346  15.105   4.281 -0.0473  0.1687 -0.0433
 2329SSM    C3A26619   8.275  14.992   4.699 -0.2157  0.0680 -0.1015
 2329SSM    C4A26620   8.426  14.809   5.155 -0.0820  0.0118  0.0745
 2329SSM    C1B26621   7.761  15.499   3.957  0.1987  0.2971  0.3102
 2329SSM    C2B26622   7.523  15.554   4.401 -0.2245  0.0720 -0.0108
 2329SSM    C3B26623   7.406  15.434   4.832  0.1540 -0.0253 -0.0246
 2329SSM    C4B26624   7.480  15.601   5.262  0.0479  0.1794  0.3704
 2330SSM    NC326625  23.314   3.116   3.910 -0.2129  0.0660  0.0433
 2330SSM    PO426626  23.655   2.989   3.770 -0.1942  0.0408  0.0458
 2330SSM    OH126627  23.798   2.825   4.087  0.1450  0.0601  0.0724
 2330SSM    AM226628  23.953   3.076   4.145 -0.1397 -0.2657 -0.0920
 2330SSM    T1A26629  23.886   2.736   4.395  0.1859  0.2027  0.0299
 2330SSM    C2A26630  24.061   2.843   4.719 -0.0224 -0.2361 -0.1210
 2330SSM    C3A26631  24.070   2.993   5.154  0.0539 -0.2674  0.0741
 2330SSM    C4A26632  24.227   3.227   5.533  0.1467  0.1073  0.0335
 2330SSM    C1B26633  24.235   3.289   4.392  0.2934  0.1533 -0.2395
 2330SSM    C2B26634  24.438   3.105   4.822 -0.0622  0.1385 -0.1272
 2330SSM    C3B26635  24.516   2.845   5.202  0.0621 -0.0723 -0.2037
 2330SSM    C4B26636  24.275   2.466   5.517  0.0865 -0.0277  0.1772
 2331SSM    NC326637   6.284  25.666   3.705 -0.1264  0.0887  0.0059
 2331SSM    PO426638   6.617  25.487   3.764 -0.0065  0.1335  0.0920
 2331SSM    OH126639   6.656  25.600   4.137 -0.1965  0.1407  0.0146
 2331SSM    AM226640   6.758  25.318   4.216  0.0447 -0.0844  0.0503
 2331SSM    T1A26641   6.790  25.739   4.412 -0.0025  0.1950  0.1001
 2331SSM    C2A26642   6.865  25.801   4.792 -0.2201 -0.0845 -0.1737
 2331SSM    C3A26643   7.084  25.731   5.221  0.1998  0.2871  0.0820
 2331SSM    C4A26644   7.328  25.653   5.650 -0.3469 -0.0029  0.0998
 2331SSM    C1B26645   6.701  25.028   4.462  0.0558  0.0640  0.0579
 2331SSM    C2B26646   6.668  24.724   4.877  0.0510  0.0753 -0.0760
 2331SSM    C3B26647   6.954  24.443   5.262  0.0878 -0.1098 -0.0971
 2331SSM    C4B26648   7.066  24.155   5.601 -0.0658 -0.0200  0.0084
 2332SSM    NC326649   3.314  11.872   3.199  0.1966 -0.0430  0.2453
 2332SSM    PO426650   3.581  12.047   3.418  0.2947 -0.3193  0.0322
 2332SSM    OH126651   3.914  12.063   3.652  0.1801  0.0638  0.0427
 2332SSM    AM226652   3.752  11.905   3.841  0.1476  0.1680 -0.1283
 2332SSM    T1A26653   4.152  12.122   3.894 -0.0207  0.1812 -0.0842
 2332SSM    C2A26654   4.481  11.990   4.062  0.0556 -0.0899  0.0676
 2332SSM    C3A26655   4.836  11.945   4.213  0.2433 -0.4683  0.2074
 2332SSM    C4A26656   5.265  11.798   4.391 -0.1717 -0.1810 -0.2820
 2332SSM    C1B26657   3.705  11.906   4.235  0.0423  0.1092  0.0364
 2332SSM    C2B26658   3.912  11.979   4.752  0.1049  0.2818  0.0170
 2332SSM    C3B26659   4.116  12.182   5.039  0.0966  0.0003 -0.1226
 2332SSM    C4B26660   4.332  12.475   5.408 -0.0855 -0.0813 -0.0339
 2333SSM    NC326661  10.481  14.315   2.888 -0.3092 -0.2691 -0.2677
 2333SSM    PO426662  10.859  14.208   2.925 -0.0592  0.1095 -0.1224
 2333SSM    OH126663  10.757  14.096   3.286 -0.5444  0.2586 -0.4365
 2333SSM    AM226664  10.954  14.283   3.436  0.1232 -0.1511 -0.1587
 2333SSM    T1A26665  10.704  13.888   3.564 -0.3911  0.4920 -0.4412
 2333SSM    C2A26666  10.668  13.761   3.881  0.0934  0.0657  0.4063
 2333SSM    C3A26667  10.839  13.464   4.184 -0.0294  0.1477 -0.1259
 2333SSM    C4A26668  10.701  13.205   4.570  0.0047 -0.0544 -0.2228
 2333SSM    C1B26669  11.066  14.315   3.823  0.3278 -0.0829 -0.0016
 2333SSM    C2B26670  11.241  14.333   4.337  0.0929  0.0406 -0.4253
 2333SSM    C3B26671  11.194  14.349   4.845  0.0896 -0.1135 -0.0117
 2333SSM    C4B26672  10.762  14.518   5.072 -0.2209  0.2665  0.1027
 2334SSM    NC326673   6.086   8.337   3.344 -0.4295 -0.0550 -0.1149
 2334SSM    PO426674   5.848   8.240   3.037 -0.1235  0.1072  0.2447
 2334SSM    OH126675   5.512   8.198   3.194  0.0658 -0.0928  0.2375
 2334SSM    AM226676   5.632   8.201   3.475 -0.2094  0.2717 -0.0716
 2334SSM    T1A26677   5.253   8.255   3.399 -0.1791  0.0536  0.3627
 2334SSM    C2A26678   5.365   8.423   3.786  0.2553 -0.1264  0.1305
 2334SSM    C3A26679   5.358   8.361   4.334 -0.0180  0.0445 -0.2115
 2334SSM    C4A26680   5.351   8.164   4.781  0.1978  0.0845  0.1472
 2334SSM    C1B26681   5.769   7.938   3.758 -0.0872  0.4763 -0.1910
 2334SSM    C2B26682   5.759   7.858   4.191  0.0024 -0.2162 -0.1432
 2334SSM    C3B26683   5.733   7.761   4.650 -0.1639  0.1182  0.1112
 2334SSM    C4B26684   5.550   7.781   5.116 -0.4735 -0.0427  0.1421
 2335SSM    NC326685  11.397   8.771   3.335 -0.2523 -0.1578 -0.3113
 2335SSM    PO426686  11.464   8.940   3.694  0.0302  0.0906  0.2471
 2335SSM    OH126687  11.642   8.767   3.992  0.0815  0.1088 -0.0269
 2335SSM    AM226688  11.480   8.916   4.211  0.1666  0.0016  0.1408
 2335SSM    T1A26689  11.811   8.638   4.259 -0.1393  0.1357  0.2679
 2335SSM    C2A26690  11.708   8.509   4.601 -0.1239  0.0005  0.1290
 2335SSM    C3A26691  11.613   8.537   5.087 -0.1063 -0.1815 -0.0146
 2335SSM    C4A26692  11.410   8.420   5.529 -0.4398 -0.0851 -0.3485
 2335SSM    C1B26693  11.395   8.873   4.570 -0.0739 -0.0179 -0.2034
 2335SSM    C2B26694  11.539   9.008   5.040  0.0995 -0.0307  0.5010
 2335SSM    C3B26695  11.795   9.166   5.326 -0.1234 -0.0105  0.0254
 2335SSM    C4B26696  11.953   9.333   5.769 -0.1058 -0.0562 -0.4280
 2336SSM    NC326697   2.675   0.165   3.308  0.1096 -0.2078  0.1064
 2336SSM    PO426698   2.888   0.496   3.379 -0.0078 -0.5061  0.0611
 2336SSM    OH126699   3.125   0.557   3.636 -0.0305  0.1780 -0.1078
 2336SSM    AM226700   3.024   0.846   3.703  0.0639  0.0914 -0.0004
 2336SSM    T1A26701   3.117   0.478   3.965  0.2963 -0.1874  0.2037
 2336SSM    C2A26702   2.915   0.499   4.271 -0.2839  0.1754  0.1229
 2336SSM    C3A26703   2.751   0.453   4.818 -0.2094 -0.1421 -0.0820
 2336SSM    C4A26704   2.415   0.258   5.145 -0.1224 -0.0414 -0.3309
 2336SSM    C1B26705   2.810   0.904   3.998 -0.3603  0.2007  0.0651
 2336SSM    C2B26706   2.653   0.894   4.465  0.0108  0.2693  0.0624
 2336SSM    C3B26707   2.589   0.933   4.927  0.0420  0.0428 -0.1733
 2336SSM    C4B26708   2.578   1.150   5.350  0.1529 -0.1656 -0.0187
 2337SSM    NC326709  17.261  11.756   3.273 -0.1196 -0.1278  0.0524
 2337SSM    PO426710  17.150  11.410   3.149 -0.1122 -0.1408  0.1021
 2337SSM    OH126711  17.170  11.174   3.479  0.4615  0.0822 -0.0906
 2337SSM    AM226712  17.158  11.435   3.620  0.0610  0.0208  0.0585
 2337SSM    T1A26713  17.125  11.009   3.780 -0.1628 -0.4015  0.2403
 2337SSM    C2A26714  16.912  10.856   4.129 -0.1599  0.0420  0.0682
 2337SSM    C3A26715  16.989  11.046   4.574 -0.0239 -0.1916  0.2781
 2337SSM    C4A26716  17.013  11.250   5.053  0.1096 -0.2514  0.1411
 2337SSM    C1B26717  17.155  11.675   4.006  0.2479  0.0562  0.3549
 2337SSM    C2B26718  17.133  11.942   4.495 -0.3318 -0.2041  0.0238
 2337SSM    C3B26719  17.202  12.212   4.859 -0.1583 -0.2341 -0.0917
 2337SSM    C4B26720  17.523  12.110   5.225  0.2441  0.3841  0.1583
 2338SSM    NC326721   6.734  22.262   4.098  0.3037 -0.2626 -0.0130
 2338SSM    PO426722   6.899  21.999   3.848 -0.1609  0.2008  0.0266
 2338SSM    OH126723   7.249  22.068   3.916  0.2652 -0.0451  0.0545
 2338SSM    AM226724   7.154  22.071   4.219 -0.0553 -0.5543  0.1006
 2338SSM    T1A26725   7.553  22.080   4.041 -0.1212  0.0677  0.2739
 2338SSM    C2A26726   7.708  22.037   4.369 -0.1251 -0.1402 -0.2633
 2338SSM    C3A26727   7.763  22.020   4.793 -0.2200  0.1690 -0.0712
 2338SSM    C4A26728   7.748  22.259   5.233 -0.0461  0.0372 -0.1167
 2338SSM    C1B26729   7.253  21.987   4.566  0.2618  0.2850 -0.0246
 2338SSM    C2B26730   7.364  21.861   5.045  0.0381 -0.1323  0.0542
 2338SSM    C3B26731   7.343  21.861   5.488  0.3675 -0.2761 -0.0431
 2338SSM    C4B26732   7.219  22.002   5.957  0.4157  0.0319  0.0747
 2339SSM    NC326733  17.703   0.225   3.591 -0.0836 -0.0184 -0.0038
 2339SSM    PO426734  17.799  -0.171   3.639  0.0801  0.1155 -0.2773
 2339SSM    OH126735  17.757  -0.522   3.758  0.1626 -0.0327 -0.0729
 2339SSM    AM226736  18.064  -0.491   3.836  0.0349  0.4122 -0.3871
 2339SSM    T1A26737  17.680  -0.787   3.950 -0.0390  0.2045 -0.1245
 2339SSM    C2A26738  17.711  -1.075   4.284  0.1945 -0.0183  0.0694
 2339SSM    C3A26739  17.630  -1.221   4.720  0.0343 -0.2103  0.0979
 2339SSM    C4A26740  17.888  -1.381   5.108  0.1008  0.3028 -0.1876
 2339SSM    C1B26741  18.351  -0.591   4.052 -0.2089 -0.1298 -0.0711
 2339SSM    C2B26742  18.615  -0.571   4.419 -0.0657  0.0948  0.3003
 2339SSM    C3B26743  18.763  -0.481   4.807 -0.3590  0.1539 -0.1382
 2339SSM    C4B26744  18.959  -0.459   5.258  0.1099 -0.0429 -0.2399
 2340SSM    NC326745   6.963  24.223   3.308  0.1805  0.0120  0.1218
 2340SSM    PO426746   7.194  24.265   3.680 -0.0337  0.3410 -0.3504
 2340SSM    OH126747   7.013  24.300   4.066  0.0775  0.4202 -0.3045
 2340SSM    AM226748   7.307  24.357   4.143  0.3525 -0.0546 -0.0430
 2340SSM    T1A26749   7.045  24.169   4.371  0.0397 -0.2037 -0.0416
 2340SSM    C2A26750   7.120  24.136   4.759 -0.1114  0.1529 -0.1251
 2340SSM    C3A26751   7.025  23.901   5.185  0.2106 -0.0438  0.3739
 2340SSM    C4A26752   7.304  23.693   5.432  0.0157  0.1220 -0.1911
 2340SSM    C1B26753   7.614  24.585   4.373  0.1900  0.1949  0.0789
 2340SSM    C2B26754   8.021  24.789   4.602  0.0518  0.0006 -0.2049
 2340SSM    C3B26755   8.314  24.970   4.931 -0.0973  0.0363  0.0314
 2340SSM    C4B26756   8.673  24.978   5.262 -0.0288 -0.2795 -0.1298
 2341SSM    NC326757   6.490  10.860   3.231 -0.1973 -0.1773 -0.1123
 2341SSM    PO426758   6.891  10.730   3.273  0.3245 -0.1802 -0.1022
 2341SSM    OH126759   6.950  10.531   3.596 -0.1074  0.2923  0.1127
 2341SSM    AM226760   7.102  10.758   3.716  0.3818 -0.3602  0.0635
 2341SSM    T1A26761   6.990  10.350   3.888 -0.2203 -0.0545  0.0718
 2341SSM    C2A26762   6.920  10.275   4.265 -0.0578  0.0509  0.3053
 2341SSM    C3A26763   6.798  10.159   4.702  0.1806  0.2998  0.4994
 2341SSM    C4A26764   6.633   9.972   5.085  0.1303 -0.0332  0.0548
 2341SSM    C1B26765   7.071  10.975   4.035 -0.0990  0.0522  0.0496
 2341SSM    C2B26766   7.074  11.264   4.548  0.0619 -0.1787  0.0037
 2341SSM    C3B26767   6.801  11.348   4.961  0.1495 -0.1266  0.3053
 2341SSM    C4B26768   6.438  11.467   5.249  0.0465 -0.2144  0.0711
 2342SSM    NC326769   5.260  22.914   4.009 -0.0442  0.2348 -0.0234
 2342SSM    PO426770   5.452  23.260   3.957 -0.0336  0.4522 -0.1570
 2342SSM    OH126771   5.616  23.520   4.140 -0.2125  0.1791  0.0886
 2342SSM    AM226772   5.780  23.324   4.306  0.2944 -0.0958 -0.2231
 2342SSM    T1A26773   5.726  23.780   4.354 -0.1533  0.1986 -0.0648
 2342SSM    C2A26774   5.884  23.808   4.746 -0.0202  0.0744 -0.5243
 2342SSM    C3A26775   6.013  23.800   5.210 -0.4114 -0.0682 -0.2030
 2342SSM    C4A26776   6.181  23.856   5.674  0.2801  0.2574 -0.1944
 2342SSM    C1B26777   5.820  23.094   4.626  0.1320  0.0047 -0.0464
 2342SSM    C2B26778   5.737  22.875   5.093 -0.1342 -0.3562 -0.0717
 2342SSM    C3B26779   5.749  22.964   5.586 -0.1271 -0.1014 -0.0812
 2342SSM    C4B26780   5.705  22.654   5.954  0.2528 -0.1489 -0.1378
 2343SSM    NC326781   1.004  11.679   3.512 -0.1459 -0.3426 -0.3320
 2343SSM    PO426782   1.369  11.805   3.439 -0.0662  0.0099 -0.1141
 2343SSM    OH126783   1.421  11.863   3.807  0.0849  0.1711  0.1913
 2343SSM    AM226784   1.291  11.620   3.924 -0.0958 -0.0672  0.2955
 2343SSM    T1A26785   1.322  11.994   4.114 -0.0638 -0.5151  0.2733
 2343SSM    C2A26786   1.356  11.804   4.491 -0.1499 -0.1449 -0.0357
 2343SSM    C3A26787   1.265  11.869   4.965  0.1003  0.2214 -0.0039
 2343SSM    C4A26788   1.028  11.992   5.375  0.2401  0.2459  0.2565
 2343SSM    C1B26789   1.329  11.372   4.187  0.0409  0.0245 -0.1273
 2343SSM    C2B26790   1.204  11.265   4.707 -0.0586  0.0062  0.0337
 2343SSM    C3B26791   0.994  11.134   5.168 -0.0363  0.0040 -0.0731
 2343SSM    C4B26792   0.867  10.810   5.458  0.1000  0.1459  0.3355
 2344SSM    NC326793  14.143  19.157   2.775  0.1970 -0.0930 -0.0019
 2344SSM    PO426794  13.885  18.999   3.022  0.1203  0.1787 -0.1645
 2344SSM    OH126795  13.714  19.080   3.349 -0.0312 -0.0500 -0.1201
 2344SSM    AM226796  13.732  18.793   3.408 -0.1141 -0.1635 -0.3707
 2344SSM    T1A26797  13.469  19.171   3.569 -0.2309  0.1887  0.1167
 2344SSM    C2A26798  13.390  19.390   3.834 -0.1878  0.3302 -0.1336
 2344SSM    C3A26799  13.595  19.638   4.152  0.3107  0.0223  0.0216
 2344SSM    C4A26800  13.899  19.676   4.476 -0.0221  0.1949  0.1154
 2344SSM    C1B26801  13.738  18.578   3.692  0.3250 -0.4078  0.1993
 2344SSM    C2B26802  13.554  18.400   4.171  0.3605 -0.1748  0.1316
 2344SSM    C3B26803  13.168  18.363   4.517  0.1437  0.0735  0.0203
 2344SSM    C4B26804  12.729  18.447   4.718  0.3642  0.0570  0.1227
 2345SSM    NC326805  12.980   0.212   3.940 -0.1830  0.1024  0.1303
 2345SSM    PO426806  12.826   0.561   3.761  0.0222  0.0977 -0.1721
 2345SSM    OH126807  12.671   0.637   4.071  0.0780  0.1067 -0.2509
 2345SSM    AM226808  12.861   0.475   4.242  0.0391 -0.0746 -0.0540
 2345SSM    T1A26809  12.561   0.742   4.381 -0.0346 -0.0454  0.1502
 2345SSM    C2A26810  12.593   0.678   4.799  0.1068 -0.0790 -0.2696
 2345SSM    C3A26811  12.540   0.904   5.275  0.2230  0.0247 -0.1555
 2345SSM    C4A26812  12.615   1.230   5.638 -0.1127  0.0064 -0.0378
 2345SSM    C1B26813  13.045   0.342   4.525 -0.1329  0.1515 -0.1611
 2345SSM    C2B26814  13.022   0.573   5.047 -0.1190  0.0462 -0.1216
 2345SSM    C3B26815  12.956   0.721   5.526  0.0830 -0.0544 -0.1121
 2345SSM    C4B26816  12.962   0.883   5.972 -0.1363  0.0325  0.0227
 2346SSM    NC326817  24.839  16.949   3.981  0.2415  0.0193  0.5521
 2346SSM    PO426818  24.824  16.600   3.791 -0.1267 -0.1060 -0.1888
 2346SSM    OH126819  24.627  16.355   3.957 -0.3502  0.0897  0.3313
 2346SSM    AM226820  24.720  16.416   4.237  0.0971  0.2007 -0.1160
 2346SSM    T1A26821  24.505  16.050   4.079 -0.0746  0.1492  0.0050
 2346SSM    C2A26822  24.302  15.730   4.243  0.1417  0.0311  0.2173
 2346SSM    C3A26823  24.010  15.677   4.625 -0.2432 -0.4194 -0.0103
 2346SSM    C4A26824  23.641  15.709   5.028  0.2455  0.1966 -0.0035
 2346SSM    C1B26825  24.581  16.398   4.575  0.5664  0.2709  0.0192
 2346SSM    C2B26826  24.346  16.463   5.025 -0.1693 -0.2875  0.0353
 2346SSM    C3B26827  24.226  16.589   5.463  0.2995  0.2721 -0.0763
 2346SSM    C4B26828  23.975  16.802   5.895 -0.1545 -0.0946  0.3565
 2347SSM    NC326829  24.974   8.984   3.721 -0.1340 -0.1743  0.2391
 2347SSM    PO426830  24.704   9.132   3.498  0.0218  0.1627  0.1122
 2347SSM    OH126831  24.454   9.187   3.763 -0.2136  0.1245 -0.3463
 2347SSM    AM226832  24.651   9.251   3.975  0.5117  0.2119 -0.2182
 2347SSM    T1A26833  24.235   9.194   4.053 -0.0454  0.1194 -0.3414
 2347SSM    C2A26834  24.037   9.264   4.416  0.1056  0.3198 -0.0133
 2347SSM    C3A26835  23.867   9.305   4.903 -0.0998 -0.3215  0.0845
 2347SSM    C4A26836  23.792   9.445   5.294  0.1530  0.0575 -0.5044
 2347SSM    C1B26837  24.589   9.378   4.317  0.3495 -0.1299 -0.0670
 2347SSM    C2B26838  24.379   9.512   4.741 -0.3821 -0.1601 -0.3554
 2347SSM    C3B26839  24.229   9.643   5.203  0.1868  0.2758 -0.1757
 2347SSM    C4B26840  24.037   9.854   5.582 -0.0915  0.0629  0.0543
 2348SSM    NC326841   1.965  15.857   3.643  0.1839  0.2521  0.1343
 2348SSM    PO426842   1.768  16.213   3.716  0.1438 -0.3781  0.0638
 2348SSM    OH126843   1.960  16.254   4.051  0.4388  0.1089  0.1447
 2348SSM    AM226844   2.157  16.057   3.988 -0.0350  0.0276  0.2855
 2348SSM    T1A26845   2.025  16.216   4.413  0.2904  0.0271  0.0675
 2348SSM    C2A26846   2.117  16.144   4.769  0.0110 -0.1066 -0.0123
 2348SSM    C3A26847   1.936  15.965   5.223 -0.1315  0.1235  0.0888
 2348SSM    C4A26848   1.752  15.528   5.370 -0.0982 -0.3904  0.1694
 2348SSM    C1B26849   2.353  15.839   4.202  0.1756  0.1890  0.1493
 2348SSM    C2B26850   2.593  15.368   4.353  0.1158  0.0055  0.2016
 2348SSM    C3B26851   2.665  14.923   4.528 -0.1564 -0.4291  0.2104
 2348SSM    C4B26852   2.478  14.985   4.999 -0.2494  0.3367 -0.0570
 2349SSM    NC326853  27.545   6.424   3.793  0.0430 -0.1111  0.3726
 2349SSM    PO426854  27.181   6.321   3.570 -0.0564  0.1725  0.0672
 2349SSM    OH126855  26.895   6.213   3.765 -0.0954 -0.1589  0.1719
 2349SSM    AM226856  27.034   6.299   4.007 -0.3189  0.0932  0.1060
 2349SSM    T1A26857  26.695   5.978   3.929 -0.1082 -0.0996 -0.1279
 2349SSM    C2A26858  26.562   6.003   4.299  0.2140  0.3461 -0.0310
 2349SSM    C3A26859  26.452   5.925   4.769 -0.1917 -0.1615 -0.0018
 2349SSM    C4A26860  26.109   5.859   5.076 -0.0128  0.1446  0.1772
 2349SSM    C1B26861  27.314   6.571   4.237  0.3694  0.1623 -0.0854
 2349SSM    C2B26862  27.267   6.652   4.752 -0.0657  0.0991  0.0833
 2349SSM    C3B26863  27.116   6.589   5.240 -0.2031 -0.0423  0.1953
 2349SSM    C4B26864  27.070   6.267   5.563  0.0049 -0.1315 -0.2248
 2350SSM    NC326865  11.709   4.981   3.144 -0.3129 -0.0453 -0.2255
 2350SSM    PO426866  11.590   5.129   3.487 -0.1425  0.0612 -0.1662
 2350SSM    OH126867  11.662   5.184   3.864  0.2776  0.0004 -0.1617
 2350SSM    AM226868  11.367   5.176   3.942  0.2699  0.0300 -0.1028
 2350SSM    T1A26869  11.691   5.075   4.198 -0.0449 -0.0904  0.2021
 2350SSM    C2A26870  11.699   5.004   4.546  0.1606  0.4797 -0.2141
 2350SSM    C3A26871  11.398   4.978   4.923  0.0347 -0.5391 -0.0306
 2350SSM    C4A26872  11.304   5.023   5.427 -0.1239 -0.4958 -0.1383
 2350SSM    C1B26873  11.084   5.331   4.193  0.0960  0.1010  0.3360
 2350SSM    C2B26874  10.925   5.500   4.633 -0.2600  0.0848  0.3286
 2350SSM    C3B26875  10.606   5.763   4.931  0.0431  0.1776 -0.0203
 2350SSM    C4B26876  10.418   6.097   5.267  0.2876  0.2257  0.2811
 2351SSM    NC326877  27.464  18.648   3.970  0.0884  0.1192 -0.1270
 2351SSM    PO426878  27.753  18.447   4.146  0.3775  0.0160 -0.0784
 2351SSM    OH126879  27.477  18.235   4.294  0.1755 -0.1494  0.0535
 2351SSM    AM226880  27.269  18.437   4.333 -0.3546 -0.2759 -0.1590
 2351SSM    T1A26881  27.309  18.097   4.575 -0.2393  0.0976 -0.2152
 2351SSM    C2A26882  27.313  17.872   4.969  0.1215 -0.0072  0.0537
 2351SSM    C3A26883  27.385  17.538   5.293 -0.1300  0.2066 -0.1406
 2351SSM    C4A26884  27.347  17.322   5.722  0.0524  0.0259  0.2770
 2351SSM    C1B26885  26.904  18.546   4.421 -0.1562  0.0839  0.1609
 2351SSM    C2B26886  26.626  18.580   4.854  0.2640 -0.1717  0.0760
 2351SSM    C3B26887  26.416  18.437   5.292 -0.0681  0.0521 -0.0326
 2351SSM    C4B26888  26.221  18.591   5.684 -0.1200  0.1505 -0.0370
 2352SSM    NC326889  12.554   9.039   3.803 -0.1202  0.1829 -0.1555
 2352SSM    PO426890  12.747   9.382   3.750  0.0337  0.3625 -0.5415
 2352SSM    OH126891  12.878   9.232   4.086  0.1917  0.2934  0.0451
 2352SSM    AM226892  12.758   9.514   4.202 -0.1798  0.0584 -0.2804
 2352SSM    T1A26893  12.819   9.093   4.416 -0.0089 -0.0714 -0.0421
 2352SSM    C2A26894  12.591   9.081   4.750  0.2915 -0.4111  0.2346
 2352SSM    C3A26895  12.496   9.176   5.193  0.1001  0.0131  0.0387
 2352SSM    C4A26896  12.349   9.069   5.587  0.4772  0.0014 -0.0725
 2352SSM    C1B26897  12.627   9.537   4.568 -0.2854 -0.1215 -0.1072
 2352SSM    C2B26898  12.632   9.646   5.102 -0.1970 -0.4585  0.1948
 2352SSM    C3B26899  12.853   9.487   5.499 -0.0890  0.0969  0.1372
 2352SSM    C4B26900  13.027   9.436   5.894  0.0002  0.1375 -0.1653
 2353SSM    NC326901  14.894  18.482   3.134 -0.2502 -0.0128 -0.1035
 2353SSM    PO426902  15.259  18.649   3.151  0.2824 -0.2018 -0.1356
 2353SSM    OH126903  15.521  18.596   3.399 -0.0261  0.1219  0.2088
 2353SSM    AM226904  15.428  18.834   3.573 -0.1784 -0.2309  0.2715
 2353SSM    T1A26905  15.674  18.464   3.668  0.1574  0.0630 -0.0348
 2353SSM    C2A26906  15.808  18.377   4.040  0.0911 -0.0486  0.1062
 2353SSM    C3A26907  15.943  18.349   4.488 -0.1761  0.1120  0.3262
 2353SSM    C4A26908  16.136  18.146   4.901 -0.1621 -0.4604 -0.2586
 2353SSM    C1B26909  15.325  18.999   3.953 -0.0188  0.4253  0.2359
 2353SSM    C2B26910  15.486  19.251   4.391 -0.0084 -0.3300 -0.0358
 2353SSM    C3B26911  15.555  19.187   4.890 -0.0199  0.0311  0.3476
 2353SSM    C4B26912  15.569  19.564   5.251 -0.0588 -0.0057  0.1686
 2354SSM    NC326913  16.398   9.743   3.267 -0.1429 -0.1272 -0.0122
 2354SSM    PO426914  16.027   9.910   3.335  0.2204  0.1696  0.1944
 2354SSM    OH126915  15.952  10.013   3.717 -0.1266 -0.1495  0.3839
 2354SSM    AM226916  16.234  10.027   3.729 -0.6414  0.1507 -0.0809
 2354SSM    T1A26917  15.919  10.195   3.996 -0.1340 -0.2099 -0.4201
 2354SSM    C2A26918  15.786  10.373   4.332 -0.2298 -0.0564  0.1569
 2354SSM    C3A26919  15.684  10.389   4.776 -0.1668  0.0334  0.1509
 2354SSM    C4A26920  15.322  10.578   5.085  0.2190  0.2887 -0.3210
 2354SSM    C1B26921  16.525  10.065   4.007  0.1332 -0.0876  0.1876
 2354SSM    C2B26922  16.693  10.063   4.499  0.0172 -0.0638 -0.0004
 2354SSM    C3B26923  17.096  10.005   4.666 -0.1993 -0.1483  0.2234
 2354SSM    C4B26924  17.255   9.915   5.127  0.1624  0.1466 -0.0030
 2355SSM    NC326925   0.457  19.784   3.968 -0.1607 -0.0377 -0.2051
 2355SSM    PO426926   0.295  19.386   3.895  0.1611 -0.2388  0.0095
 2355SSM    OH126927   0.526  19.246   4.175  0.2617 -0.0581  0.3067
 2355SSM    AM226928   0.367  19.384   4.374 -0.0433 -0.1415  0.0048
 2355SSM    T1A26929   0.749  19.165   4.417 -0.1422 -0.2706 -0.0106
 2355SSM    C2A26930   0.791  19.116   4.775  0.1955  0.1547 -0.1844
 2355SSM    C3A26931   0.869  19.182   5.256 -0.0864 -0.0734 -0.2535
 2355SSM    C4A26932   0.966  19.168   5.718  0.2205  0.0727 -0.1457
 2355SSM    C1B26933   0.215  19.371   4.701 -0.2888  0.0711 -0.0535
 2355SSM    C2B26934   0.047  19.532   5.136 -0.0224 -0.1390 -0.2439
 2355SSM    C3B26935  -0.148  19.780   5.532  0.1084  0.1625 -0.0092
 2355SSM    C4B26936  -0.333  19.924   5.960  0.1731 -0.4361 -0.2433
 2356SSM    NC326937  12.057  24.814   3.395 -0.4517 -0.2041 -0.2778
 2356SSM    PO426938  12.355  24.569   3.337  0.0007  0.0050 -0.0047
 2356SSM    OH126939  12.425  24.661   3.673  0.3985 -0.0911 -0.0647
 2356SSM    AM226940  12.363  24.397   3.814  0.1828 -0.0887  0.0770
 2356SSM    T1A26941  12.334  24.764   3.997 -0.2701 -0.0637  0.2399
 2356SSM    C2A26942  12.092  24.738   4.324 -0.0930 -0.0942  0.1072
 2356SSM    C3A26943  11.900  24.764   4.758  0.0592  0.0367 -0.2334
 2356SSM    C4A26944  11.743  24.569   5.202  0.0148  0.2113 -0.0427
 2356SSM    C1B26945  12.179  24.246   4.081  0.0140  0.0863  0.2672
 2356SSM    C2B26946  12.220  23.782   4.262 -0.0884  0.0815 -0.0235
 2356SSM    C3B26947  12.123  23.365   4.535  0.3190 -0.0322  0.0949
 2356SSM    C4B26948  11.700  23.271   4.819  0.0543 -0.1981  0.1802
 2357SSM    NC326949  19.545   0.205   3.603  0.0945 -0.1354 -0.1437
 2357SSM    PO426950  19.793   0.155   3.321 -0.2484 -0.2060  0.2085
 2357SSM    OH126951  20.110  -0.026   3.476 -0.2329 -0.1288  0.2431
 2357SSM    AM226952  19.953   0.040   3.749 -0.1820  0.3434  0.1362
 2357SSM    T1A26953  20.354  -0.157   3.678 -0.1857  0.0499  0.2473
 2357SSM    C2A26954  20.520  -0.253   4.005  0.0178  0.2327 -0.1225
 2357SSM    C3A26955  20.340  -0.145   4.431  0.3002 -0.0229 -0.3002
 2357SSM    C4A26956  20.081   0.305   4.552 -0.0278 -0.1503  0.1986
 2357SSM    C1B26957  19.944   0.053   4.144 -0.2953 -0.1742 -0.1179
 2357SSM    C2B26958  19.788  -0.114   4.655 -0.2217  0.1855 -0.1579
 2357SSM    C3B26959  19.741  -0.123   5.198  0.2295  0.1197 -0.2699
 2357SSM    C4B26960  19.777  -0.167   5.692  0.0827 -0.0619 -0.0781
 2358SSM    NC326961  16.805   3.282   3.130  0.0849  0.2205  0.0817
 2358SSM    PO426962  17.063   3.541   3.255  0.1392 -0.1284 -0.2024
 2358SSM    OH126963  17.222   3.576   3.560 -0.3556 -0.0117  0.3578
 2358SSM    AM226964  17.055   3.789   3.672  0.2094 -0.4831  0.3185
 2358SSM    T1A26965  17.320   3.547   3.905 -0.3010 -0.2398 -0.0023
 2358SSM    C2A26966  17.264   3.560   4.347 -0.0420  0.1342  0.3022
 2358SSM    C3A26967  17.362   3.491   4.823  0.0785  0.3919 -0.1695
 2358SSM    C4A26968  17.401   3.581   5.288  0.1640 -0.0335  0.0382
 2358SSM    C1B26969  17.061   3.913   4.026  0.0151 -0.0687 -0.1856
 2358SSM    C2B26970  16.854   3.856   4.482  0.1457  0.1556 -0.1550
 2358SSM    C3B26971  16.659   3.937   4.911  0.2433  0.0601 -0.1856
 2358SSM    C4B26972  16.943   3.877   5.278  0.0496  0.0015 -0.0896
 2359SSM    NC326973  13.429  26.757   3.541 -0.1219  0.0431 -0.1412
 2359SSM    PO426974  13.184  26.580   3.764  0.0008 -0.3473 -0.5016
 2359SSM    OH126975  13.251  26.603   4.139 -0.2703  0.1473  0.1371
 2359SSM    AM226976  12.929  26.587   4.194  0.1073 -0.3588  0.0279
 2359SSM    T1A26977  13.222  26.625   4.477 -0.2011  0.0544 -0.1509
 2359SSM    C2A26978  13.045  26.765   4.832 -0.2353 -0.2969  0.1234
 2359SSM    C3A26979  12.919  26.818   5.257 -0.2489 -0.2617  0.1609
 2359SSM    C4A26980  12.989  26.854   5.705 -0.2486  0.0805  0.0827
 2359SSM    C1B26981  12.679  26.582   4.507  0.3031 -0.0146 -0.1038
 2359SSM    C2B26982  12.585  26.789   4.932 -0.3395  0.0092 -0.2231
 2359SSM    C3B26983  12.423  26.928   5.380 -0.0016 -0.1095  0.0106
 2359SSM    C4B26984  12.536  26.695   5.871 -0.0375  0.1837 -0.1067
 2360SSM    NC326985   2.989  16.258   2.860  0.1604 -0.1210  0.1916
 2360SSM    PO426986   3.248  16.560   2.938  0.3157  0.1865 -0.0676
 2360SSM    OH126987   3.331  16.625   3.284  0.2236  0.0955 -0.2387
 2360SSM    AM226988   3.607  16.545   3.292 -0.3144 -0.2377 -0.1639
 2360SSM    T1A26989   3.362  16.696   3.628  0.1796 -0.0338  0.1063
 2360SSM    C2A26990   3.201  16.914   3.938  0.4321 -0.2756  0.1878
 2360SSM    C3A26991   2.909  16.847   4.303 -0.1615  0.0627 -0.0596
 2360SSM    C4A26992   3.063  16.873   4.764 -0.1665 -0.1240  0.0308
 2360SSM    C1B26993   3.764  16.512   3.635 -0.1651  0.0334  0.0374
 2360SSM    C2B26994   3.817  16.763   4.043 -0.1652  0.1097  0.0101
 2360SSM    C3B26995   3.973  16.811   4.469 -0.0452 -0.1423 -0.0848
 2360SSM    C4B26996   4.023  16.856   4.966  0.0269 -0.0916  0.1232
 2361SSM    NC326997  21.394  12.548   3.728  0.2086  0.1444  0.1923
 2361SSM    PO426998  21.641  12.220   3.804 -0.1383 -0.0193 -0.1632
 2361SSM    OH126999  21.619  12.037   4.088 -0.0568 -0.0047 -0.0241
 2361SSM    AM227000  21.479  12.266   4.265  0.1019  0.1007  0.1507
 2361SSM    T1A27001  21.726  11.897   4.367  0.3520 -0.0134 -0.0022
 2361SSM    C2A27002  21.690  11.984   4.722 -0.2350 -0.1188  0.1012
 2361SSM    C3A27003  21.975  11.935   5.063  0.0369 -0.0035 -0.0634
 2361SSM    C4A27004  22.448  11.832   5.124  0.0534 -0.2165  0.1937
 2361SSM    C1B27005  21.484  12.457   4.595  0.2806  0.1281 -0.5519
 2361SSM    C2B27006  21.428  12.266   5.068  0.1002  0.1717  0.2327
 2361SSM    C3B27007  21.162  11.963   5.212  0.2180 -0.1554  0.1004
 2361SSM    C4B27008  21.207  11.621   5.568 -0.0725 -0.2724  0.0366
 2362SSM    NC327009  15.570   5.850   3.180 -0.0723  0.0711  0.4139
 2362SSM    PO427010  15.422   6.161   3.356 -0.1891  0.0549 -0.0080
 2362SSM    OH127011  15.303   6.297   3.665 -0.4683 -0.3234 -0.1989
 2362SSM    AM227012  15.606   6.414   3.691 -0.3297 -0.2211 -0.2736
 2362SSM    T1A27013  15.160   6.420   3.962 -0.2568  0.1000  0.1198
 2362SSM    C2A27014  15.323   6.416   4.268  0.0198 -0.0553  0.0695
 2362SSM    C3A27015  15.542   6.783   4.402 -0.0231  0.0520  0.0136
 2362SSM    C4A27016  15.803   7.192   4.639 -0.1479 -0.0239  0.0108
 2362SSM    C1B27017  15.816   6.588   4.010 -0.0850 -0.0072 -0.2439
 2362SSM    C2B27018  16.187   6.716   4.430 -0.0361 -0.0937 -0.1778
 2362SSM    C3B27019  16.398   6.551   4.850  0.0112  0.2050  0.3727
 2362SSM    C4B27020  16.487   6.188   5.032 -0.0985 -0.3393  0.0034
 2363SSM    NC327021   3.813   4.513   3.445  0.0064  0.1177  0.0501
 2363SSM    PO427022   4.162   4.740   3.596  0.4410 -0.0709  0.4109
 2363SSM    OH127023   4.306   4.990   3.808 -0.1952 -0.0179 -0.0824
 2363SSM    AM227024   4.191   4.884   4.075  0.1473 -0.3211  0.2289
 2363SSM    T1A27025   4.371   5.265   4.032  0.1410 -0.0792 -0.1426
 2363SSM    C2A27026   4.523   5.491   4.307 -0.2343  0.2608 -0.0281
 2363SSM    C3A27027   4.620   5.906   4.592 -0.2134 -0.1297  0.0553
 2363SSM    C4A27028   4.954   6.112   4.883  0.0194  0.1178 -0.0892
 2363SSM    C1B27029   4.010   4.947   4.412 -0.0891 -0.0454 -0.1875
 2363SSM    C2B27030   3.663   4.979   4.774  0.2209 -0.2055  0.1423
 2363SSM    C3B27031   3.399   5.002   5.143 -0.2844  0.2152 -0.1750
 2363SSM    C4B27032   3.360   4.854   5.639 -0.1947 -0.2193 -0.0953
 2364SSM    NC327033   5.777   1.169   3.073  0.0645 -0.1637  0.2107
 2364SSM    PO427034   5.879   1.498   3.347 -0.1607  0.3449  0.1119
 2364SSM    OH127035   5.808   1.587   3.711 -0.0407 -0.1229  0.0028
 2364SSM    AM227036   6.058   1.736   3.717 -0.0322 -0.4205  0.0767
 2364SSM    T1A27037   5.775   1.537   4.031 -0.1407 -0.2621  0.0877
 2364SSM    C2A27038   5.796   1.589   4.401  0.2572  0.2567 -0.6454
 2364SSM    C3A27039   5.927   1.510   4.907  0.0325  0.0147  0.0692
 2364SSM    C4A27040   5.849   1.558   5.383 -0.0397  0.3276 -0.0401
 2364SSM    C1B27041   6.190   2.032   3.911  0.1659 -0.1686 -0.1055
 2364SSM    C2B27042   5.917   2.056   4.385 -0.0574  0.0894 -0.2489
 2364SSM    C3B27043   5.863   2.124   4.857 -0.0323 -0.3377  0.2967
 2364SSM    C4B27044   5.847   2.057   5.350 -0.1332 -0.1340 -0.1366
 2365SSM    NC327045  16.096  26.640   3.774  0.0484 -0.1220 -0.1927
 2365SSM    PO427046  16.405  26.453   3.871  0.0244 -0.1679  0.1932
 2365SSM    OH127047  16.357  26.418   4.203 -0.2502 -0.2024  0.2884
 2365SSM    AM227048  16.489  26.684   4.313  0.3718  0.1433 -0.2076
 2365SSM    T1A27049  16.313  26.440   4.538  0.0008 -0.1316  0.2078
 2365SSM    C2A27050  16.442  26.366   4.885  0.1352 -0.1335 -0.1315
 2365SSM    C3A27051  16.608  26.167   5.315 -0.0363  0.1306 -0.0073
 2365SSM    C4A27052  16.493  25.749   5.471  0.1278  0.0096 -0.3643
 2365SSM    C1B27053  16.619  26.877   4.687  0.0442  0.1625 -0.2792
 2365SSM    C2B27054  16.700  26.976   5.146  0.1476 -0.0269  0.1077
 2365SSM    C3B27055  16.826  27.193   5.489 -0.1114  0.1553  0.3556
 2365SSM    C4B27056  17.057  27.407   5.866  0.1565  0.2072  0.1767
 2366SSM    NC327057  13.207  13.671   2.998 -0.0664 -0.0214 -0.2735
 2366SSM    PO427058  13.261  13.609   3.344 -0.2713 -0.1647 -0.0158
 2366SSM    OH127059  13.594  13.610   3.525 -0.0853  0.0782  0.2903
 2366SSM    AM227060  13.467  13.671   3.797 -0.4184 -0.1475  0.0322
 2366SSM    T1A27061  13.925  13.560   3.596 -0.0665 -0.3474 -0.5121
 2366SSM    C2A27062  14.310  13.473   3.573 -0.1281  0.1415  0.1218
 2366SSM    C3A27063  14.644  13.579   3.936  0.0244 -0.1150 -0.3168
 2366SSM    C4A27064  15.015  13.782   4.187  0.1323 -0.2069 -0.1276
 2366SSM    C1B27065  13.384  13.599   4.164 -0.1103  0.1357 -0.1867
 2366SSM    C2B27066  13.433  13.671   4.645 -0.2044 -0.0351 -0.0594
 2366SSM    C3B27067  13.415  13.458   5.004  0.1762 -0.2751  0.4600
 2366SSM    C4B27068  13.795  13.574   5.293  0.0934  0.1865 -0.0923
 2367SSM    NC327069  24.182  17.494   3.434 -0.1697 -0.1790  0.4059
 2367SSM    PO427070  24.430  17.179   3.343  0.1141  0.2567 -0.1762
 2367SSM    OH127071  24.442  16.964   3.675 -0.2503  0.1176 -0.0111
 2367SSM    AM227072  24.207  17.135   3.777 -0.0205 -0.1275 -0.1307
 2367SSM    T1A27073  24.378  16.728   3.912 -0.4786  0.1708 -0.2179
 2367SSM    C2A27074  24.273  16.625   4.256 -0.1233  0.1936  0.3482
 2367SSM    C3A27075  23.966  16.665   4.519 -0.3756  0.1613  0.0279
 2367SSM    C4A27076  23.797  16.594   4.977  0.2182  0.0595  0.1029
 2367SSM    C1B27077  23.913  17.313   3.993  0.1552  0.1474  0.0157
 2367SSM    C2B27078  23.494  17.478   4.290  0.0679 -0.0196 -0.2182
 2367SSM    C3B27079  23.217  17.401   4.743  0.3045 -0.0647 -0.1415
 2367SSM    C4B27080  23.092  17.284   5.201  0.1054 -0.2787  0.0001
 2368SSM    NC327081   1.957   7.783   4.236 -0.1074  0.1535  0.0489
 2368SSM    PO427082   2.268   7.864   4.047  0.1859  0.5508 -0.0411
 2368SSM    OH127083   2.572   8.086   4.188  0.0091 -0.1311  0.0418
 2368SSM    AM227084   2.709   7.825   4.224 -0.1331  0.0048 -0.0876
 2368SSM    T1A27085   2.766   8.148   4.472 -0.3123 -0.0615  0.4620
 2368SSM    C2A27086   2.961   8.365   4.750  0.1186 -0.3150 -0.2117
 2368SSM    C3A27087   2.926   8.710   5.108 -0.1471  0.1106 -0.0245
 2368SSM    C4A27088   3.180   9.075   5.322 -0.1594 -0.0484  0.0788
 2368SSM    C1B27089   2.859   7.508   4.455 -0.2166  0.1512 -0.2995
 2368SSM    C2B27090   2.956   7.354   4.945 -0.0269  0.0562  0.1422
 2368SSM    C3B27091   2.967   7.276   5.370 -0.0801  0.2087  0.2656
 2368SSM    C4B27092   2.944   7.248   5.866  0.0162  0.0816 -0.1409
 2369SSM    NC327093  27.450  11.673   3.064  0.1274  0.1919  0.3969
 2369SSM    PO427094  27.145  11.713   3.276 -0.0275  0.0771 -0.3333
 2369SSM    OH127095  27.210  11.896   3.562  0.1510 -0.2856  0.8411
 2369SSM    AM227096  27.475  11.730   3.589 -0.2931  0.1983 -0.1529
 2369SSM    T1A27097  27.167  11.922   3.896 -0.1368 -0.1767  0.1461
 2369SSM    C2A27098  27.131  11.704   4.203  0.0150 -0.0070 -0.2237
 2369SSM    C3A27099  26.991  11.373   4.487 -0.2589 -0.2939 -0.0404
 2369SSM    C4A27100  26.924  11.019   4.814 -0.0060  0.1850 -0.0185
 2369SSM    C1B27101  27.582  11.469   3.869 -0.1276  0.1600  0.3294
 2369SSM    C2B27102  27.559  11.277   4.357 -0.1114  0.1118  0.0975
 2369SSM    C3B27103  27.427  11.273   4.824 -0.0032  0.1712 -0.1910
 2369SSM    C4B27104  27.417  11.229   5.357 -0.0051 -0.1125 -0.1050
 2370SSM    NC327105  12.933  14.187   3.702  0.2444  0.0669 -0.0248
 2370SSM    PO427106  12.655  14.412   3.519  0.0242 -0.0779  0.0243
 2370SSM    OH127107  12.369  14.544   3.730  0.1825 -0.0057 -0.0339
 2370SSM    AM227108  12.357  14.278   3.881 -0.2403 -0.2374 -0.0447
 2370SSM    T1A27109  12.177  14.700   3.977  0.1768 -0.3688 -0.2131
 2370SSM    C2A27110  12.304  14.689   4.336  0.0474  0.0068 -0.1659
 2370SSM    C3A27111  12.282  14.704   4.843 -0.1116 -0.1550  0.0349
 2370SSM    C4A27112  12.289  14.745   5.368  0.2019  0.1764 -0.4220
 2370SSM    C1B27113  12.215  14.133   4.206 -0.1552  0.0956 -0.1468
 2370SSM    C2B27114  12.119  14.230   4.631  0.3265 -0.0539  0.2086
 2370SSM    C3B27115  11.946  14.342   5.110  0.0091 -0.0076  0.1653
 2370SSM    C4B27116  11.829  14.175   5.567  0.2108 -0.1243  0.0917
 2371SSM    NC327117  17.392  17.803   3.856 -0.1555 -0.1260 -0.3070
 2371SSM    PO427118  17.050  17.806   3.690 -0.3215  0.0408 -0.0906
 2371SSM    OH127119  16.855  17.835   4.044 -0.1383 -0.1972 -0.0079
 2371SSM    AM227120  17.004  17.583   4.144  0.1659 -0.0728 -0.1311
 2371SSM    T1A27121  16.698  17.915   4.356 -0.0703 -0.0336  0.1368
 2371SSM    C2A27122  16.629  18.243   4.606  0.3066  0.0634  0.3568
 2371SSM    C3A27123  16.586  18.325   5.129  0.0704  0.0816  0.0409
 2371SSM    C4A27124  16.379  18.315   5.645  0.2094 -0.2046 -0.0226
 2371SSM    C1B27125  17.032  17.190   4.225  0.1707 -0.1415 -0.0401
 2371SSM    C2B27126  17.015  17.062   4.759  0.0859  0.0349  0.2661
 2371SSM    C3B27127  16.829  17.026   5.208 -0.1212 -0.2135 -0.1977
 2371SSM    C4B27128  16.845  17.111   5.737 -0.2156 -0.0560 -0.0016
 2372SSM    NC327129   3.456  17.952   3.145  0.0611  0.2902  0.2300
 2372SSM    PO427130   3.315  18.221   3.351 -0.1153  0.0954 -0.0047
 2372SSM    OH127131   3.258  18.095   3.673 -0.1072 -0.0959 -0.5034
 2372SSM    AM227132   3.272  18.381   3.782 -0.0273  0.0151  0.0803
 2372SSM    T1A27133   3.376  18.055   4.003 -0.0313  0.0259  0.2866
 2372SSM    C2A27134   3.504  18.097   4.371  0.0329 -0.0207 -0.1490
 2372SSM    C3A27135   3.592  18.033   4.832 -0.0631  0.0574 -0.0625
 2372SSM    C4A27136   3.579  18.234   5.227  0.0459 -0.1162 -0.1100
 2372SSM    C1B27137   3.361  18.521   4.086 -0.0251  0.0166 -0.2583
 2372SSM    C2B27138   3.375  18.622   4.590  0.0357  0.1552  0.0804
 2372SSM    C3B27139   3.457  18.747   5.049  0.3550 -0.2446 -0.0445
 2372SSM    C4B27140   3.484  19.224   5.123  0.4140  0.1046  0.0827
 2373SSM    NC327141   5.827   4.043   2.917  0.1082  0.0130 -0.1895
 2373SSM    PO427142   6.182   4.084   3.015  0.1028  0.2313 -0.2998
 2373SSM    OH127143   6.045   4.128   3.376 -0.0671 -0.4087 -0.5236
 2373SSM    AM227144   6.336   4.047   3.462  0.0981  0.2563  0.3270
 2373SSM    T1A27145   5.948   4.090   3.728 -0.2078 -0.0459 -0.0733
 2373SSM    C2A27146   5.954   4.115   4.148  0.1592  0.0558  0.1858
 2373SSM    C3A27147   6.070   4.284   4.557  0.4294 -0.1098 -0.1517
 2373SSM    C4A27148   6.009   4.494   5.053 -0.0009 -0.3881  0.1468
 2373SSM    C1B27149   6.481   4.070   3.797  0.1447  0.0697  0.3099
 2373SSM    C2B27150   6.512   4.042   4.317  0.2263  0.1942 -0.1458
 2373SSM    C3B27151   6.464   4.117   4.838  0.0233 -0.0822  0.0168
 2373SSM    C4B27152   6.578   4.424   5.186  0.0915  0.1408  0.4588
 2374SSM    NC327153  25.339   1.201   3.576 -0.0523  0.0347  0.1560
 2374SSM    PO427154  25.140   1.468   3.793  0.1860 -0.0866  0.5265
 2374SSM    OH127155  24.956   1.585   4.037 -0.1634 -0.1785 -0.2052
 2374SSM    AM227156  25.143   1.641   4.257 -0.1832  0.0785  0.1523
 2374SSM    T1A27157  24.666   1.527   4.243 -0.1244  0.0823 -0.0515
 2374SSM    C2A27158  24.540   1.477   4.601  0.3100  0.1796 -0.4156
 2374SSM    C3A27159  24.369   1.420   5.016  0.1190  0.2255  0.1000
 2374SSM    C4A27160  24.297   1.159   5.444  0.0721  0.1844  0.1301
 2374SSM    C1B27161  25.060   1.710   4.581  0.2135  0.0230 -0.0893
 2374SSM    C2B27162  24.815   1.767   5.009 -0.1326 -0.1429 -0.1506
 2374SSM    C3B27163  24.704   1.848   5.486  0.2176 -0.1439  0.1026
 2374SSM    C4B27164  24.423   1.994   5.850  0.0465 -0.0989 -0.0233
 2375SSM    NC327165   1.205   3.529   3.773 -0.0462 -0.0016  0.0193
 2375SSM    PO427166   0.923   3.391   3.589  0.0780  0.0021 -0.0264
 2375SSM    OH127167   0.680   3.606   3.734  0.0693  0.0089  0.1274
 2375SSM    AM227168   0.825   3.625   4.003  0.2632  0.0194  0.3102
 2375SSM    T1A27169   0.413   3.703   3.930 -0.0337 -0.1040  0.2473
 2375SSM    C2A27170   0.158   3.617   4.210  0.3266 -0.0190 -0.0173
 2375SSM    C3A27171  -0.040   3.454   4.583 -0.1641  0.0768 -0.3196
 2375SSM    C4A27172  -0.098   3.301   5.011 -0.0192 -0.1478 -0.0739
 2375SSM    C1B27173   0.995   3.395   4.347 -0.1431  0.0318 -0.5269
 2375SSM    C2B27174   1.073   3.252   4.831 -0.1088 -0.2394  0.0691
 2375SSM    C3B27175   1.037   3.010   5.222 -0.0162 -0.1574 -0.0795
 2375SSM    C4B27176   0.944   3.088   5.716 -0.1050  0.1699 -0.2962
 2376SSM    NC327177  22.649  20.471   3.211  0.1183 -0.1860  0.0297
 2376SSM    PO427178  22.711  20.124   3.370  0.0236 -0.1491  0.0404
 2376SSM    OH127179  22.651  20.217   3.694  0.0056 -0.1584  0.0383
 2376SSM    AM227180  22.376  20.060   3.755  0.1116  0.1209 -0.0966
 2376SSM    T1A27181  22.685  20.203   4.040 -0.3387  0.0982 -0.2709
 2376SSM    C2A27182  22.521  20.172   4.406 -0.1185 -0.1729 -0.0310
 2376SSM    C3A27183  22.397  20.425   4.783  0.2333 -0.0191  0.2691
 2376SSM    C4A27184  22.296  20.770   5.100 -0.2569 -0.0303 -0.3609
 2376SSM    C1B27185  22.246  19.934   4.096  0.1120 -0.0085 -0.0304
 2376SSM    C2B27186  22.056  19.650   4.433  0.2028  0.2682  0.0179
 2376SSM    C3B27187  21.915  19.252   4.678  0.3316  0.1829 -0.0637
 2376SSM    C4B27188  21.868  19.039   5.190 -0.2537 -0.1191  0.1190
 2377SSM    NC327189  12.419   0.558   3.453 -0.0995  0.3178  0.0167
 2377SSM    PO427190  12.444   0.975   3.386 -0.0478  0.1084  0.0267
 2377SSM    OH127191  12.442   0.966   3.776  0.2618  0.1230  0.3888
 2377SSM    AM227192  12.277   1.201   3.834 -0.2922 -0.1274 -0.3449
 2377SSM    T1A27193  12.272   0.824   4.063  0.0976 -0.0032  0.0766
 2377SSM    C2A27194  12.148   1.054   4.398 -0.0071  0.1414 -0.3084
 2377SSM    C3A27195  12.253   1.136   4.914  0.1402  0.0299 -0.2872
 2377SSM    C4A27196  12.229   1.378   5.323  0.0386  0.1485  0.2051
 2377SSM    C1B27197  11.896   1.253   4.044  0.2713  0.0181 -0.2208
 2377SSM    C2B27198  11.804   1.321   4.541  0.2706 -0.1845  0.1401
 2377SSM    C3B27199  11.830   1.520   4.932 -0.2939  0.2372  0.1838
 2377SSM    C4B27200  11.960   1.771   5.369  0.0484  0.1297  0.2205
 2378SSM    NC327201  16.747   8.920   2.895 -0.0542  0.0858 -0.1293
 2378SSM    PO427202  17.046   9.165   2.952  0.1251 -0.0440  0.0509
 2378SSM    OH127203  16.969   9.068   3.288  0.4059 -0.0630  0.3457
 2378SSM    AM227204  17.164   8.859   3.257 -0.3500  0.2190 -0.3294
 2378SSM    T1A27205  16.883   9.105   3.638  0.0954  0.1664  0.4274
 2378SSM    C2A27206  16.892   9.036   4.041  0.0606 -0.3906 -0.0653
 2378SSM    C3A27207  16.777   8.993   4.496  0.1315  0.2126  0.0725
 2378SSM    C4A27208  16.641   9.091   4.944  0.1387 -0.1938  0.1150
 2378SSM    C1B27209  17.423   8.674   3.436 -0.3157  0.0719  0.1026
 2378SSM    C2B27210  17.697   8.278   3.590 -0.0631  0.2276  0.2361
 2378SSM    C3B27211  17.943   8.067   3.902  0.1898  0.0085 -0.0284
 2378SSM    C4B27212  18.272   7.854   4.195  0.1468  0.6114  0.3919
 2379SSM    NC327213   0.086  25.088   3.040  0.1297 -0.1206 -0.0987
 2379SSM    PO427214  -0.309  25.066   3.141 -0.0760  0.0271  0.0753
 2379SSM    OH127215  -0.395  24.726   3.314  0.1317 -0.0479 -0.0247
 2379SSM    AM227216  -0.192  24.813   3.507 -0.3938 -0.3212  0.2563
 2379SSM    T1A27217  -0.449  24.456   3.520 -0.1417  0.0131 -0.2573
 2379SSM    C2A27218  -0.516  24.370   3.905  0.1209 -0.5051 -0.0680
 2379SSM    C3A27219  -0.501  24.538   4.408  0.1485 -0.2444  0.1255
 2379SSM    C4A27220  -0.215  24.848   4.683 -0.0561  0.3742 -0.2995
 2379SSM    C1B27221  -0.113  25.101   3.841 -0.0887 -0.1759 -0.0689
 2379SSM    C2B27222  -0.180  25.238   4.299  0.1260  0.4185  0.0524
 2379SSM    C3B27223  -0.243  25.352   4.762  0.2402 -0.0557  0.1335
 2379SSM    C4B27224  -0.283  25.176   5.196  0.1060 -0.2282 -0.0548
 2380SSM    NC327225   2.568  17.956   3.148  0.1456 -0.0523 -0.2569
 2380SSM    PO427226   2.336  18.168   3.381  0.0146  0.0123 -0.1228
 2380SSM    OH127227   2.358  18.410   3.661  0.1573  0.1107 -0.0711
 2380SSM    AM227228   2.241  18.240   3.871 -0.3347  0.1550  0.3589
 2380SSM    T1A27229   2.275  18.653   3.888 -0.0783 -0.1579 -0.0659
 2380SSM    C2A27230   2.545  18.823   4.099 -0.0077 -0.0191  0.1912
 2380SSM    C3A27231   2.661  19.160   4.384  0.0146  0.0078  0.3372
 2380SSM    C4A27232   2.676  19.487   4.765 -0.2253  0.2495 -0.0740
 2380SSM    C1B27233   2.296  17.905   4.182  0.1986 -0.0049  0.0005
 2380SSM    C2B27234   2.691  17.749   4.533  0.0211  0.1687  0.1821
 2380SSM    C3B27235   2.883  17.615   4.924  0.1515 -0.0141 -0.0871
 2380SSM    C4B27236   3.304  17.771   5.198 -0.2571  0.0856  0.0371
 2381SSM    NC327237   4.778  19.408   3.525  0.3559 -0.2371 -0.2202
 2381SSM    PO427238   4.917  19.035   3.677 -0.0550 -0.0130  0.1977
 2381SSM    OH127239   4.982  19.087   4.016  0.1380 -0.3355 -0.2556
 2381SSM    AM227240   4.766  18.919   4.127 -0.0517 -0.0532  0.0724
 2381SSM    T1A27241   4.986  19.296   4.287  0.2198 -0.0533  0.0473
 2381SSM    C2A27242   5.051  19.399   4.663 -0.0420 -0.2280 -0.0157
 2381SSM    C3A27243   4.921  19.249   5.101  0.0935 -0.1048  0.3747
 2381SSM    C4A27244   5.111  19.407   5.523  0.0901  0.0873 -0.1150
 2381SSM    C1B27245   4.547  18.769   4.463  0.0997  0.1540  0.1126
 2381SSM    C2B27246   4.533  18.691   4.986 -0.2438  0.1677 -0.0177
 2381SSM    C3B27247   4.839  18.824   5.370  0.2585  0.1344 -0.1396
 2381SSM    C4B27248   5.165  18.938   5.713  0.1022 -0.2274  0.0190
 2382SSM    NC327249   6.057   8.820   3.130 -0.0183 -0.2337 -0.3508
 2382SSM    PO427250   6.262   8.793   3.468 -0.0911  0.2235 -0.1873
 2382SSM    OH127251   6.070   8.958   3.740  0.2772  0.2510  0.1395
 2382SSM    AM227252   6.224   8.781   3.963  0.1819  0.0731  0.6845
 2382SSM    T1A27253   5.924   9.069   4.055 -0.2195  0.1144  0.2851
 2382SSM    C2A27254   5.945   9.163   4.466  0.3539  0.0158  0.1229
 2382SSM    C3A27255   5.882   9.224   4.889  0.0525  0.2063 -0.0193
 2382SSM    C4A27256   5.921   9.176   5.402 -0.0813  0.2940 -0.0722
 2382SSM    C1B27257   6.239   8.642   4.329 -0.1229  0.1514 -0.0339
 2382SSM    C2B27258   6.173   8.618   4.815 -0.0319  0.1080  0.0656
 2382SSM    C3B27259   5.979   8.661   5.245 -0.3983 -0.1501  0.0449
 2382SSM    C4B27260   5.697   8.780   5.635  0.3044 -0.2621  0.1407
 2383SSM    NC327261   5.631  15.053   3.394 -0.0107  0.2587 -0.2462
 2383SSM    PO427262   5.766  15.397   3.198  0.2087  0.2407 -0.0492
 2383SSM    OH127263   5.797  15.635   3.466  0.0986 -0.0680 -0.3206
 2383SSM    AM227264   5.745  15.424   3.672  0.3762 -0.3783  0.0551
 2383SSM    T1A27265   5.784  15.852   3.715  0.1218 -0.0986 -0.1104
 2383SSM    C2A27266   5.591  15.867   4.008  0.2157  0.1891 -0.1629
 2383SSM    C3A27267   5.502  15.803   4.491 -0.1944 -0.0045 -0.0981
 2383SSM    C4A27268   5.681  15.745   4.963  0.2358 -0.2084  0.1470
 2383SSM    C1B27269   5.626  15.351   4.009  0.0316  0.1383  0.0396
 2383SSM    C2B27270   5.690  15.204   4.534  0.1524 -0.0026  0.0730
 2383SSM    C3B27271   5.696  15.306   5.042 -0.1010 -0.1952  0.0545
 2383SSM    C4B27272   5.965  15.577   5.362  0.1176  0.1508  0.0845
 2384SSM    NC327273  23.621   7.623   3.133  0.1005 -0.0754 -0.0980
 2384SSM    PO427274  23.774   7.855   3.389  0.0707 -0.1497  0.1835
 2384SSM    OH127275  23.814   7.879   3.732  0.2481  0.0228 -0.4159
 2384SSM    AM227276  23.831   8.175   3.721 -0.2759  0.0510  0.0752
 2384SSM    T1A27277  23.781   7.918   4.071  0.2281 -0.0692  0.1108
 2384SSM    C2A27278  24.011   7.904   4.365  0.0820 -0.0057 -0.1122
 2384SSM    C3A27279  24.042   7.870   4.846 -0.0622  0.1157 -0.1577
 2384SSM    C4A27280  24.104   8.034   5.313  0.2520 -0.2012 -0.2510
 2384SSM    C1B27281  23.771   8.359   3.977  0.2463 -0.1844 -0.0290
 2384SSM    C2B27282  23.767   8.301   4.504 -0.1087  0.0257  0.0520
 2384SSM    C3B27283  23.745   8.367   4.957 -0.1104 -0.4226 -0.3636
 2384SSM    C4B27284  23.727   8.441   5.454  0.2021  0.0736  0.0916
 2385SSM    NC327285  25.028  11.023   4.124 -0.1887 -0.4300  0.0836
 2385SSM    PO427286  25.179  10.740   3.856 -0.2947 -0.2217  0.0243
 2385SSM    OH127287  25.408  10.522   4.063  0.1415  0.1915  0.3109
 2385SSM    AM227288  25.299  10.688   4.301  0.0465 -0.0989  0.0962
 2385SSM    T1A27289  25.578  10.355   4.321  0.0257 -0.2216  0.2848
 2385SSM    C2A27290  25.705  10.217   4.670 -0.1400 -0.0959 -0.0226
 2385SSM    C3A27291  25.700  10.095   5.145  0.0511 -0.0196 -0.1050
 2385SSM    C4A27292  25.838  10.064   5.616  0.1405  0.0304 -0.0280
 2385SSM    C1B27293  24.930  10.765   4.563 -0.0770 -0.1924 -0.0020
 2385SSM    C2B27294  24.692  10.511   5.005 -0.0837  0.3047  0.0976
 2385SSM    C3B27295  24.908  10.246   5.377  0.1100  0.2005  0.3265
 2385SSM    C4B27296  25.039  10.061   5.788  0.0527 -0.2988  0.0048
 2386SSM    NC327297  18.723   0.692   3.380 -0.0020  0.1175  0.0582
 2386SSM    PO427298  19.099   0.791   3.389 -0.0231 -0.0020  0.1037
 2386SSM    OH127299  19.270   0.626   3.677 -0.0374 -0.0892  0.3017
 2386SSM    AM227300  19.104   0.376   3.634  0.0243  0.1326 -0.1793
 2386SSM    T1A27301  19.256   0.502   4.006 -0.2871  0.1893  0.2159
 2386SSM    C2A27302  19.105   0.432   4.425 -0.2055  0.2161  0.1184
 2386SSM    C3A27303  19.079   0.451   4.906 -0.1161  0.0761  0.0728
 2386SSM    C4A27304  19.011   0.568   5.395  0.5183 -0.0232 -0.1736
 2386SSM    C1B27305  18.985   0.101   3.929  0.0436 -0.2582  0.1963
 2386SSM    C2B27306  18.876  -0.102   4.441 -0.1598 -0.0900  0.1303
 2386SSM    C3B27307  18.782   0.016   4.882 -0.3749 -0.1721  0.2162
 2386SSM    C4B27308  18.732   0.092   5.309 -0.0135 -0.0362 -0.0235
 2387SSM    NC327309  10.035  11.036   3.737 -0.4221  0.2051 -0.1293
 2387SSM    PO427310  10.013  10.688   3.562  0.2982  0.0037 -0.0404
 2387SSM    OH127311  10.091  10.419   3.848  0.2717 -0.0240  0.1871
 2387SSM    AM227312  10.044  10.625   4.072  0.1779 -0.4328 -0.0842
 2387SSM    T1A27313  10.085  10.194   4.103 -0.3253 -0.4717  0.1018
 2387SSM    C2A27314  10.104   9.875   4.414  0.0202  0.1365  0.3619
 2387SSM    C3A27315  10.140   9.570   4.731  0.3332 -0.0221 -0.0519
 2387SSM    C4A27316  10.111   9.185   5.011  0.3743 -0.0198 -0.0159
 2387SSM    C1B27317  10.049  10.782   4.460  0.1067  0.1537 -0.1433
 2387SSM    C2B27318  10.182  10.882   4.918 -0.2728 -0.2251  0.1690
 2387SSM    C3B27319  10.202  10.835   5.429 -0.0775 -0.2729  0.1473
 2387SSM    C4B27320  10.170  10.954   5.890 -0.0581  0.2760  0.2888
 2388SSM    NC327321  26.102   4.441   3.782 -0.1648  0.1545 -0.1145
 2388SSM    PO427322  25.766   4.446   3.984 -0.0836 -0.1668  0.2227
 2388SSM    OH127323  25.770   4.721   4.211  0.1001 -0.0485 -0.1171
 2388SSM    AM227324  25.468   4.768   4.229  0.0183  0.0010  0.3373
 2388SSM    T1A27325  25.739   4.818   4.517 -0.0653 -0.1085  0.2610
 2388SSM    C2A27326  25.672   4.962   4.859  0.1367 -0.0358  0.4011
 2388SSM    C3A27327  25.646   5.006   5.322  0.2791  0.0242 -0.0918
 2388SSM    C4A27328  25.590   5.107   5.804  0.0778 -0.0704 -0.0267
 2388SSM    C1B27329  25.242   4.887   4.581  0.2119 -0.1887 -0.0332
 2388SSM    C2B27330  25.205   4.959   5.088  0.0070  0.0688  0.4176
 2388SSM    C3B27331  25.130   4.848   5.496 -0.0591 -0.1222 -0.4315
 2388SSM    C4B27332  25.112   5.057   5.978 -0.5122  0.2254  0.2597
 2389CHOL   ROH27333  27.337   2.750   4.173  0.3253  0.0159 -0.0760
 2389CHOL    R127334  27.408   2.955   4.546  0.0619  0.0996 -0.0698
 2389CHOL    R227335  27.211   2.674   4.489  0.2692 -0.0402 -0.1117
 2389CHOL    R327336  27.355   2.905   4.968 -0.0467  0.1032 -0.0828
 2389CHOL    R427337  27.220   2.611   4.792  0.2101 -0.0054 -0.1023
 2389CHOL    R527338  27.451   2.599   4.503  0.3169  0.1227 -0.0236
 2389CHOL    R627339  27.427   2.638   4.968  0.1338  0.1507 -0.0344
 2389CHOL    C127340  27.194   2.653   5.239  0.0306  0.0191 -0.1144
 2389CHOL    C227341  27.286   2.713   5.667  0.0386 -0.2301  0.3031
 2390CHOL   ROH27342  18.615   6.778   3.681  0.0810 -0.0965  0.1487
 2390CHOL    R127343  18.350   7.106   3.771  0.0556 -0.0622 -0.0454
 2390CHOL    R227344  18.496   6.880   3.992 -0.0628 -0.0257  0.0715
 2390CHOL    R327345  18.207   7.336   4.103 -0.0904  0.0142 -0.1600
 2390CHOL    R427346  18.438   7.077   4.225 -0.1634  0.0253  0.0043
 2390CHOL    R527347  18.668   7.056   3.935 -0.0250 -0.0476  0.1178
 2390CHOL    R627348  18.453   7.350   4.228 -0.1495  0.0253 -0.0444
 2390CHOL    C127349  18.227   7.357   4.505 -0.2820  0.0953 -0.1539
 2390CHOL    C227350  18.039   7.670   4.740 -0.0952 -0.1016  0.3012
 2391CHOL   ROH27351  19.624   7.493   6.478 -0.1599 -0.0354 -0.0093
 2391CHOL    R127352  19.631   7.517   6.047 -0.0503 -0.1048 -0.0116
 2391CHOL    R227353  19.389   7.372   6.251 -0.1554  0.0220 -0.0449
 2391CHOL    R327354  19.377   7.461   5.708  0.0062 -0.0574 -0.0618
 2391CHOL    R427355  19.189   7.383   6.014 -0.0961  0.0643 -0.0932
 2391CHOL    R527356  19.349   7.621   6.248 -0.0566  0.0376 -0.0930
 2391CHOL    R627357  19.155   7.577   5.825  0.0242  0.0486 -0.1314
 2391CHOL    C127358  19.007   7.337   5.606 -0.0198  0.0728 -0.1283
 2391CHOL    C227359  18.915   7.212   5.222 -0.0213 -0.0232 -0.0111
 2392CHOL   ROH27360  10.623   6.479   7.245 -0.1111  0.1843 -0.0180
 2392CHOL    R127361  10.334   6.459   6.925 -0.0569 -0.1075 -0.0519
 2392CHOL    R227362  10.678   6.504   6.901 -0.0919  0.2076 -0.0132
 2392CHOL    R327363  10.311   6.417   6.500  0.0334 -0.1629 -0.0514
 2392CHOL    R427364  10.664   6.418   6.604  0.0225  0.1704 -0.0082
 2392CHOL    R527365  10.633   6.258   6.936  0.1296  0.1672  0.0006
 2392CHOL    R627366  10.511   6.226   6.486  0.2125  0.0182 -0.0120
 2392CHOL    C127367  10.544   6.393   6.172  0.0967  0.0243 -0.0212
 2392CHOL    C227368  10.527   6.469   5.724  0.3600  0.0126  0.0985
 2393CHOL   ROH27369  17.756   3.588   3.803  0.0687 -0.1696  0.1293
 2393CHOL    R127370  17.714   3.380   4.179  0.0953 -0.0512  0.1984
 2393CHOL    R227371  17.869   3.686   4.118  0.0829 -0.0655  0.0923
 2393CHOL    R327372  17.759   3.443   4.600  0.1164  0.0845  0.1764
 2393CHOL    R427373  17.850   3.751   4.421  0.0973  0.0305  0.0728
 2393CHOL    R527374  17.621   3.726   4.131  0.0823 -0.0690  0.0932
 2393CHOL    R627375  17.648   3.697   4.597  0.1086  0.0805  0.1013
 2393CHOL    C127376  17.881   3.718   4.868  0.1227  0.1741  0.0821
 2393CHOL    C227377  17.897   3.632   5.316 -0.0513 -0.0731  0.4797
 2394CHOL   ROH27378   3.632  24.863   7.780  0.0844  0.1827 -0.0568
 2394CHOL    R127379   3.368  24.882   7.439  0.0568 -0.0246 -0.0479
 2394CHOL    R227380   3.716  24.898   7.444  0.0470  0.2347 -0.0610
 2394CHOL    R327381   3.376  24.859   7.012  0.0582 -0.0328 -0.0474
 2394CHOL    R427382   3.719  24.826   7.142  0.0892  0.2269 -0.0588
 2394CHOL    R527383   3.648  24.655   7.463  0.2280  0.1838 -0.0506
 2394CHOL    R627384   3.560  24.652   7.004  0.2128  0.1030 -0.0473
 2394CHOL    C127385   3.631  24.830   6.701  0.0701  0.1471 -0.0557
 2394CHOL    C227386   3.457  24.835   6.315  0.3705  0.0007 -0.4969
 2395CHOL   ROH27387   4.938   0.308   4.403  0.0242  0.0350  0.1360
 2395CHOL    R127388   4.715   0.391   4.763 -0.0925  0.0479  0.0613
 2395CHOL    R227389   5.039   0.267   4.734 -0.1186 -0.0480  0.1700
 2395CHOL    R327390   4.770   0.432   5.185 -0.2455 -0.0348  0.0899
 2395CHOL    R427391   5.092   0.350   5.028 -0.2085 -0.1102  0.2042
 2395CHOL    R527392   5.047   0.517   4.701 -0.0280 -0.0451  0.2117
 2395CHOL    R627393   5.008   0.571   5.164 -0.1934 -0.1050  0.2052
 2395CHOL    C127394   5.050   0.396   5.473 -0.3691 -0.1664  0.1953
 2395CHOL    C227395   4.862   0.415   5.870 -0.3326 -0.0255 -0.1530
 2396CHOL   ROH27396   1.788   2.888   3.982  0.1816 -0.0915  0.0699
 2396CHOL    R127397   1.720   2.940   4.405  0.1484  0.0633  0.0466
 2396CHOL    R227398   1.946   2.727   4.248  0.1207 -0.0366  0.1402
 2396CHOL    R327399   1.896   2.843   4.783  0.0895  0.1523  0.0970
 2396CHOL    R427400   2.104   2.703   4.514  0.0884  0.0191  0.1644
 2396CHOL    R527401   2.047   2.959   4.252  0.1685 -0.0558  0.0733
 2396CHOL    R627402   2.155   2.895   4.702  0.1087  0.0711  0.1063
 2396CHOL    C127403   2.202   2.639   4.947  0.0302  0.1426  0.1966
 2396CHOL    C227404   2.470   2.705   5.289 -0.0249 -0.2618  0.4198
 2397CHOL   ROH27405  10.912  10.546   7.520  0.0518 -0.0647 -0.0926
 2397CHOL    R127406  10.870  10.697   7.119 -0.0045 -0.0847 -0.0944
 2397CHOL    R227407  11.163  10.613   7.287  0.0316  0.0761 -0.0747
 2397CHOL    R327408  11.094  10.748   6.758 -0.0067  0.0422 -0.0785
 2397CHOL    R427409  11.310  10.597   7.015  0.0597  0.1598 -0.0646
 2397CHOL    R527410  11.058  10.400   7.201  0.1554  0.0179 -0.0838
 2397CHOL    R627411  11.220  10.502   6.775  0.1287  0.1116 -0.0716
 2397CHOL    C127412  11.464  10.702   6.606  0.0305  0.2489 -0.0530
 2397CHOL    C227413  11.596  10.730   6.187  0.1427  0.1685  0.1788
 2398CHOL   ROH27414  27.578  25.680   7.464 -0.2609 -0.0688  0.1757
 2398CHOL    R127415  27.768  25.508   7.117 -0.0879  0.1086  0.1805
 2398CHOL    R227416  27.436  25.477   7.218 -0.1037 -0.0644  0.0801
 2398CHOL    R327417  27.672  25.313   6.748  0.1003  0.1665  0.0997
 2398CHOL    R427418  27.361  25.387   6.931  0.0158 -0.0196  0.0341
 2398CHOL    R527419  27.462  25.699   7.102 -0.1684 -0.0211  0.1483
 2398CHOL    R627420  27.456  25.476   6.691  0.0441  0.0877  0.0847
 2398CHOL    C127421  27.359  25.168   6.539  0.2216  0.0861 -0.0273
 2398CHOL    C227422  27.437  25.021   6.139  0.0851  0.0667  0.2182
 2399CHOL   ROH27423   5.134  15.618   3.841 -0.2071 -0.0326  0.0582
 2399CHOL    R127424   4.926  15.580   4.217 -0.0750 -0.1172  0.1230
 2399CHOL    R227425   5.207  15.405   4.107 -0.0423 -0.0089  0.0328
 2399CHOL    R327426   4.973  15.407   4.606  0.1125 -0.1053  0.1065
 2399CHOL    R427427   5.268  15.327   4.401  0.0795  0.0100  0.0128
 2399CHOL    R527428   5.283  15.631   4.190 -0.1024  0.0191  0.0119
 2399CHOL    R627429   5.241  15.475   4.628  0.0945 -0.0037  0.0237
 2399CHOL    C127430   5.222  15.174   4.821  0.2694 -0.0140  0.0258
 2399CHOL    C227431   5.272  15.151   5.252 -0.1919 -0.1372  0.0300
 2400CHOL   ROH27432  24.791  21.928   3.673  0.1563  0.0210  0.0612
 2400CHOL    R127433  24.975  21.762   4.026  0.0531 -0.0091  0.1015
 2400CHOL    R227434  24.645  21.862   3.983  0.0416 -0.0949 -0.0165
 2400CHOL    R327435  24.874  21.593   4.406 -0.0623 -0.1287  0.0187
 2400CHOL    R427436  24.566  21.692   4.230 -0.0160 -0.1768 -0.0903
 2400CHOL    R527437  24.671  21.633   3.880  0.1521 -0.0633 -0.0604
 2400CHOL    R627438  24.659  21.448   4.310  0.0205 -0.1688 -0.1087
 2400CHOL    C127439  24.558  21.520   4.645 -0.1450 -0.2774 -0.1340
 2400CHOL    C227440  24.650  21.206   4.923  0.1867  0.0898  0.0255
 2401CHOL   ROH27441   5.080   7.374   6.936 -0.2879 -0.0558  0.0109
 2401CHOL    R127442   4.953   7.253   6.542 -0.2241 -0.1053  0.0055
 2401CHOL    R227443   5.048   7.570   6.650 -0.1754 -0.1056 -0.0362
 2401CHOL    R327444   4.944   7.393   6.139 -0.0970 -0.1839 -0.0253
 2401CHOL    R427445   5.093   7.652   6.354 -0.0873 -0.1752 -0.0425
 2401CHOL    R527446   5.257   7.436   6.606 -0.1961 -0.1632  0.0395
 2401CHOL    R627447   5.197   7.506   6.148 -0.0728 -0.2408  0.0109
 2401CHOL    C127448   5.028   7.718   5.914  0.0307 -0.2481 -0.0712
 2401CHOL    C227449   5.028   7.752   5.482  0.1059  0.1423  0.0119
 2402CHOL   ROH27450   0.229  17.367   4.688  0.0900 -0.0593  0.0121
 2402CHOL    R127451  -0.005  17.184   5.000  0.0447  0.0509  0.0432
 2402CHOL    R227452   0.328  17.286   5.012  0.1015 -0.1247 -0.0075
 2402CHOL    R327453   0.005  17.110   5.421  0.0752  0.0287  0.0386
 2402CHOL    R427454   0.314  17.283   5.322  0.1513 -0.1298 -0.0052
 2402CHOL    R527455   0.183  17.490   5.044  0.2139 -0.0487  0.0251
 2402CHOL    R627456   0.109  17.358   5.486  0.2172 -0.0281  0.0319
 2402CHOL    C127457   0.243  17.150   5.745  0.1508 -0.1096  0.0011
 2402CHOL    C227458   0.110  17.097   6.157 -0.2289 -0.1394 -0.0136
 2403CHOL   ROH27459   2.949  23.975   7.281  0.2791  0.1030 -0.1104
 2403CHOL    R127460   2.821  23.734   6.948  0.0765  0.1211 -0.0474
 2403CHOL    R227461   2.889  24.075   6.953  0.2481  0.0888 -0.1091
 2403CHOL    R327462   2.786  23.748   6.522 -0.0207  0.0813 -0.0409
 2403CHOL    R427463   2.916  24.070   6.644  0.1701  0.0337 -0.1155
 2403CHOL    R527464   3.109  23.952   6.937  0.1838 -0.0231 -0.1470
 2403CHOL    R627465   3.027  23.879   6.483  0.0358 -0.0435 -0.1175
 2403CHOL    C127466   2.831  23.998   6.209  0.0275  0.0173 -0.0854
 2403CHOL    C227467   2.586  23.937   5.820 -0.0493  0.1527 -0.2615
 2404CHOL   ROH27468  25.905   7.642   4.875  0.1430  0.0710  0.0736
 2404CHOL    R127469  25.811   8.040   4.737  0.0523  0.0416  0.0493
 2404CHOL    R227470  26.016   7.946   5.003  0.0786  0.1041  0.0512
 2404CHOL    R327471  25.940   8.445   4.783 -0.0359  0.0731  0.0199
 2404CHOL    R427472  26.146   8.228   4.996  0.0167  0.1324  0.0298
 2404CHOL    R527473  26.148   7.921   4.789  0.0797  0.1191  0.0500
 2404CHOL    R627474  26.210   8.384   4.782 -0.0224  0.1324  0.0182
 2404CHOL    C127475  26.199   8.674   4.991 -0.0816  0.1439 -0.0007
 2404CHOL    C227476  26.112   9.088   5.045 -0.0983 -0.0995  0.2448
 2405CHOL   ROH27477  12.539  15.422   3.873 -0.2579  0.0013 -0.0626
 2405CHOL    R127478  12.409  15.611   4.239  0.1301 -0.0696  0.1168
 2405CHOL    R227479  12.398  15.273   4.156 -0.1425 -0.0296 -0.0209
 2405CHOL    R327480  12.292  15.514   4.639  0.3660 -0.1651  0.1641
 2405CHOL    R427481  12.368  15.204   4.456  0.0373 -0.1376 -0.0265
 2405CHOL    R527482  12.633  15.328   4.229 -0.0516 -0.2083 -0.1702
 2405CHOL    R627483  12.487  15.320   4.673  0.2719 -0.3029 -0.0624
 2405CHOL    C127484  12.222  15.199   4.881  0.3488 -0.2241  0.0826
 2405CHOL    C227485  12.041  15.239   5.277 -0.0634 -0.1400 -0.1173
 2406CHOL   ROH27486   8.956   5.327   6.622 -0.0220 -0.2683  0.1360
 2406CHOL    R127487   9.258   5.315   6.314 -0.0359 -0.0124  0.1103
 2406CHOL    R227488   8.930   5.201   6.298  0.0262 -0.1919  0.1020
 2406CHOL    R327489   9.302   5.245   5.895 -0.0258  0.1302  0.0870
 2406CHOL    R427490   8.948   5.203   5.989  0.0031 -0.0943  0.1011
 2406CHOL    R527491   8.927   5.450   6.264 -0.1162 -0.1829  0.1725
 2406CHOL    R627492   9.072   5.383   5.824 -0.1084  0.0221  0.1425
 2406CHOL    C127493   9.092   5.133   5.569  0.0133  0.1044  0.0706
 2406CHOL    C227494   9.158   5.029   5.146 -0.0501  0.0381 -0.0178
 2407CHOL   ROH27495   5.406  14.219   3.628  0.0585 -0.1153 -0.0867
 2407CHOL    R127496   5.349  14.096   4.037 -0.0813  0.0106 -0.0675
 2407CHOL    R227497   5.611  14.281   3.903  0.0600 -0.1890 -0.0710
 2407CHOL    R327498   5.499  14.172   4.430 -0.0881 -0.0011 -0.0626
 2407CHOL    R427499   5.683  14.378   4.188  0.0823 -0.1737 -0.0818
 2407CHOL    R527500   5.416  14.437   3.939  0.1556 -0.0531 -0.1330
 2407CHOL    R627501   5.519  14.446   4.395  0.0956 -0.0207 -0.1200
 2407CHOL    C127502   5.783  14.380   4.626  0.0204 -0.1434 -0.0677
 2407CHOL    C227503   5.989  14.239   5.000  0.1145  0.2936 -0.1231
 2408CHOL   ROH27504   5.751  12.389   6.662 -0.0163  0.2280  0.1616
 2408CHOL    R127505   5.414  12.342   6.398  0.1151 -0.1681  0.0574
 2408CHOL    R227506   5.713  12.511   6.338 -0.0687  0.2048  0.1591
 2408CHOL    R327507   5.305  12.394   5.987  0.1730 -0.2735  0.0283
 2408CHOL    R427508   5.655  12.497   6.034  0.0378  0.1547  0.1406
 2408CHOL    R527509   5.754  12.264   6.304  0.2446  0.2541  0.1525
 2408CHOL    R627510   5.543  12.295   5.887  0.3273  0.0248  0.0918
 2408CHOL    C127511   5.448  12.532   5.636  0.1115 -0.0715  0.0812
 2408CHOL    C227512   5.344  12.481   5.210 -0.1278  0.1601  0.1595
 2409CHOL   ROH27513  22.706   5.515   7.158  0.0349  0.0226  0.0117
 2409CHOL    R127514  22.994   5.542   6.839  0.0264 -0.0858 -0.0056
 2409CHOL    R227515  22.664   5.434   6.822 -0.0262  0.0700  0.0077
 2409CHOL    R327516  23.018   5.530   6.412 -0.0085 -0.0620 -0.0083
 2409CHOL    R427517  22.669   5.479   6.515 -0.0260  0.0932  0.0111
 2409CHOL    R527518  22.663   5.686   6.822  0.0920  0.0707  0.0288
 2409CHOL    R627519  22.788   5.678   6.372  0.0576  0.0495  0.0196
 2409CHOL    C127520  22.793   5.467   6.084 -0.0614  0.0706  0.0016
 2409CHOL    C227521  22.902   5.342   5.663 -0.0161 -0.1057 -0.4366
 2410CHOL   ROH27522   7.427  18.217   7.223 -0.0193 -0.1100  0.0639
 2410CHOL    R127523   7.291  18.420   6.868  0.1170 -0.0586  0.0403
 2410CHOL    R227524   7.469  18.122   6.890  0.1125 -0.0593  0.0654
 2410CHOL    R327525   7.239  18.356   6.448  0.2822  0.0037  0.0097
 2410CHOL    R427526   7.383  18.053   6.600  0.2267 -0.0171  0.0208
 2410CHOL    R527527   7.226  18.071   6.935  0.0949 -0.0698 -0.0373
 2410CHOL    R627528   7.144  18.098   6.476  0.2744 -0.0018 -0.0663
 2410CHOL    C127529   7.308  18.084   6.158  0.3992  0.0482 -0.0047
 2410CHOL    C227530   7.361  18.057   5.740  0.1339 -0.3235 -0.0962
 2411CHOL   ROH27531   8.757  11.436   3.723 -0.0783  0.0156  0.0619
 2411CHOL    R127532   8.747  11.379   4.151  0.1991 -0.1259  0.0518
 2411CHOL    R227533   8.999  11.523   3.959 -0.0298  0.1627 -0.0405
 2411CHOL    R327534   8.950  11.500   4.507  0.2789 -0.0507 -0.0189
 2411CHOL    R427535   9.113  11.655   4.215 -0.0134  0.1880 -0.0607
 2411CHOL    R527536   8.819  11.696   3.994 -0.1709 -0.0093  0.1074
 2411CHOL    R627537   8.980  11.764   4.427 -0.0019  0.0034  0.0434
 2411CHOL    C127538   9.269  11.714   4.632  0.1553  0.2007 -0.1246
 2411CHOL    C227539   9.285  11.612   5.058  0.3156 -0.1331  0.3634
 2412CHOL   ROH27540  16.613  22.723   7.177 -0.1023 -0.2179  0.0034
 2412CHOL    R127541  16.229  22.654   6.992 -0.0610 -0.1262 -0.1178
 2412CHOL    R227542  16.519  22.777   6.845 -0.0134 -0.1004 -0.0030
 2412CHOL    R327543  16.046  22.629   6.606  0.0353  0.0162 -0.1735
 2412CHOL    R427544  16.403  22.706   6.566  0.0519  0.0012 -0.0566
 2412CHOL    R527545  16.540  22.526   6.860 -0.0376 -0.1073 -0.0810
 2412CHOL    R627546  16.255  22.490   6.491  0.0536  0.0380 -0.1663
 2412CHOL    C127547  16.126  22.677   6.214  0.1393  0.1401 -0.1380
 2412CHOL    C227548  15.906  22.641   5.834 -0.1271 -0.0650  0.1700
 2413CHOL   ROH27549  21.912  12.450   6.913  0.0276 -0.2415 -0.2174
 2413CHOL    R127550  21.756  12.452   6.511 -0.1123 -0.0595 -0.1635
 2413CHOL    R227551  21.974  12.679   6.658  0.0659 -0.2150 -0.1843
 2413CHOL    R327552  21.818  12.639   6.132 -0.1407 -0.0039 -0.1408
 2413CHOL    R427553  22.058  12.775   6.375  0.0209 -0.1943 -0.1906
 2413CHOL    R527554  22.108  12.477   6.588 -0.0702 -0.2734 -0.2792
 2413CHOL    R627555  22.094  12.630   6.147 -0.1390 -0.1612 -0.2385
 2413CHOL    C127556  22.039  12.925   5.952 -0.0441 -0.0830 -0.1488
 2413CHOL    C227557  21.973  12.906   5.548 -0.3549  0.0313 -0.2203
 2414CHOL   ROH27558  13.878   9.219   4.620  0.1397  0.0021 -0.0556
 2414CHOL    R127559  14.129   9.456   4.878  0.1086  0.0086 -0.0313
 2414CHOL    R227560  13.987   9.145   4.943  0.0832  0.0199 -0.0323
 2414CHOL    R327561  14.355   9.426   5.240  0.0478  0.0235  0.0083
 2414CHOL    R427562  14.191   9.103   5.172  0.0436  0.0264  0.0044
 2414CHOL    R527563  14.193   9.109   4.802  0.1047  0.0000  0.0041
 2414CHOL    R627564  14.455   9.174   5.183  0.0451  0.0146  0.0426
 2414CHOL    C127565  14.439   9.170   5.540 -0.0137  0.0409  0.0404
 2414CHOL    C227566  14.629   9.345   5.880 -0.0255 -0.3203 -0.3028
 2415CHOL   ROH27567  23.767   9.587   3.802  0.0771  0.0801 -0.0656
 2415CHOL    R127568  23.758   9.884   4.115 -0.0185  0.0175 -0.0086
 2415CHOL    R227569  23.623   9.563   4.119  0.1083 -0.0370 -0.0598
 2415CHOL    R327570  23.670   9.924   4.531 -0.0056 -0.0963  0.0054
 2415CHOL    R427571  23.612   9.576   4.428  0.1248 -0.1002 -0.0565
 2415CHOL    R527572  23.870   9.544   4.165  0.1194  0.0518 -0.0809
 2415CHOL    R627573  23.790   9.685   4.603  0.0939 -0.0630 -0.0483
 2415CHOL    C127574  23.530   9.716   4.847  0.0983 -0.2119 -0.0239
 2415CHOL    C227575  23.287   9.877   5.178 -0.4431 -0.1379 -0.0409
 2416CHOL   ROH27576  22.695  27.144   6.823 -0.0484 -0.2421 -0.0288
 2416CHOL    R127577  22.620  27.310   6.431  0.0878 -0.0644  0.0192
 2416CHOL    R227578  22.797  27.022   6.512 -0.0919 -0.1992 -0.0603
 2416CHOL    R327579  22.645  27.208   6.017  0.0654  0.0601 -0.0133
 2416CHOL    R427580  22.766  26.926   6.220 -0.1225 -0.0820 -0.0964
 2416CHOL    R527581  22.551  26.967   6.519 -0.1267 -0.0545 -0.1032
 2416CHOL    R627582  22.552  26.950   6.051 -0.0929  0.1028 -0.1094
 2416CHOL    C127583  22.771  26.915   5.771 -0.0867  0.0668 -0.1001
 2416CHOL    C227584  22.776  27.021   5.347 -0.5588  0.1150  0.2793
 2417CHOL   ROH27585   8.639  14.171   7.420  0.0046 -0.0528  0.0621
 2417CHOL    R127586   8.758  14.479   7.142  0.0986 -0.0381  0.1183
 2417CHOL    R227587   8.695  14.143   7.077 -0.0727  0.0077  0.0444
 2417CHOL    R327588   8.787  14.554   6.722  0.0555  0.0549  0.1318
 2417CHOL    R427589   8.662  14.212   6.776 -0.0964  0.0993  0.0678
 2417CHOL    R527590   8.473  14.263   7.091 -0.0138  0.1094  0.1160
 2417CHOL    R627591   8.547  14.431   6.661 -0.0150  0.1838  0.1447
 2417CHOL    C127592   8.739  14.374   6.365 -0.0966  0.1675  0.0945
 2417CHOL    C227593   8.999  14.553   6.029  0.0134  0.0856 -0.2115
 2418CHOL   ROH27594   7.109  20.678   3.966  0.4050  0.1400 -0.0594
 2418CHOL    R127595   7.311  20.893   4.280  0.1393  0.1895  0.0804
 2418CHOL    R227596   7.018  20.706   4.302  0.2479 -0.0036 -0.0883
 2418CHOL    R327597   7.315  20.933   4.706 -0.0615  0.0832  0.0934
 2418CHOL    R427598   7.055  20.691   4.609  0.1310 -0.0587 -0.0765
 2418CHOL    R527599   7.213  20.546   4.307  0.3483  0.1189 -0.0500
 2418CHOL    R627600   7.284  20.662   4.754  0.0906  0.0501  0.0102
 2418CHOL    C127601   7.122  20.808   5.038 -0.1201 -0.1254 -0.0174
 2418CHOL    C227602   7.078  21.014   5.418 -0.2068 -0.1851  0.1675
 2419CHOL   ROH27603   9.684  12.773   7.110 -0.0993  0.1652  0.0671
 2419CHOL    R127604   9.527  12.971   6.760 -0.0787  0.0113 -0.0304
 2419CHOL    R227605   9.842  12.827   6.803 -0.0442  0.1209  0.0872
 2419CHOL    R327606   9.611  13.027   6.344  0.0015 -0.0887 -0.0280
 2419CHOL    R427607   9.876  12.820   6.495  0.0306  0.0381  0.0972
 2419CHOL    R527608   9.678  12.642   6.753  0.0247  0.0548  0.1043
 2419CHOL    R627609   9.691  12.765   6.302  0.0926 -0.0775  0.0697
 2419CHOL    C127610   9.889  12.944   6.064  0.0934 -0.0884  0.0621
 2419CHOL    C227611  10.032  13.159   5.714  0.2000  0.0153  0.1226
 2420CHOL   ROH27612   7.481  13.584   6.678  0.3265 -0.0852 -0.0350
 2420CHOL    R127613   7.350  13.857   6.371  0.0180 -0.0782  0.0994
 2420CHOL    R227614   7.567  13.587   6.340  0.1162  0.0204 -0.0892
 2420CHOL    R327615   7.347  13.902   5.946 -0.2649  0.0072  0.1083
 2420CHOL    R427616   7.519  13.589   6.034 -0.0745  0.0622 -0.0603
 2420CHOL    R527617   7.331  13.498   6.339  0.1530 -0.0807  0.0398
 2420CHOL    R627618   7.288  13.636   5.895 -0.1822 -0.0081  0.0917
 2420CHOL    C127619   7.481  13.727   5.608 -0.3981  0.1332 -0.0112
 2420CHOL    C227620   7.300  13.736   5.193  0.0955 -0.1271  0.2009
 2421CHOL   ROH27621  16.477  17.568   4.137  0.1443 -0.0463  0.0285
 2421CHOL    R127622  16.697  17.461   4.493  0.1134 -0.1315  0.0222
 2421CHOL    R227623  16.355  17.519   4.460  0.1275 -0.0479  0.0218
 2421CHOL    R327624  16.635  17.324   4.893  0.0746 -0.1544  0.0084
 2421CHOL    R427625  16.309  17.369   4.727  0.0876 -0.0621  0.0070
 2421CHOL    R527626  16.403  17.285   4.379  0.0736 -0.0518  0.0007
 2421CHOL    R627627  16.433  17.146   4.825  0.0338 -0.1008 -0.0117
 2421CHOL    C127628  16.341  17.242   5.157  0.0507 -0.1101 -0.0043
 2421CHOL    C227629  16.390  16.938   5.468 -0.2068 -0.2611  0.0801
 2422CHOL   ROH27630   2.472  10.517   3.834  0.0691  0.3146  0.0295
 2422CHOL    R127631   2.803  10.365   4.065  0.0500  0.2672  0.0257
 2422CHOL    R227632   2.513  10.519   4.181  0.0033  0.1701  0.0388
 2422CHOL    R327633   2.911  10.268   4.468 -0.0106  0.1086  0.0045
 2422CHOL    R427634   2.567  10.400   4.462 -0.0308  0.0558 -0.0025
 2422CHOL    R527635   2.459  10.278   4.129  0.0516  0.1832 -0.0770
 2422CHOL    R627636   2.666  10.155   4.530 -0.0044  0.0416 -0.0910
 2422CHOL    C127637   2.771  10.286   4.845 -0.0851 -0.0790 -0.0131
 2422CHOL    C227638   3.014  10.107   5.159 -0.2072 -0.0855 -0.0606
 2423CHOL   ROH27639   0.335  14.237   7.085  0.0624  0.1588  0.1350
 2423CHOL    R127640   0.516  14.111   6.714 -0.0857  0.0068  0.1136
 2423CHOL    R227641   0.210  14.271   6.761 -0.0015  0.1557  0.1592
 2423CHOL    R327642   0.475  14.161   6.291 -0.1659 -0.0535  0.1139
 2423CHOL    R427643   0.212  14.353   6.462 -0.0368  0.0996  0.1434
 2423CHOL    R527644   0.392  14.445   6.772  0.0815  0.0749  0.0823
 2423CHOL    R627645   0.421  14.432   6.306 -0.0383 -0.0252  0.0773
 2423CHOL    C127646   0.238  14.334   6.014 -0.1550  0.0037  0.1400
 2423CHOL    C227647   0.280  14.109   5.633  0.0846  0.1207  0.0012
 2424CHOL   ROH27648  22.440   0.758   5.056 -0.0349  0.1205 -0.0989
 2424CHOL    R127649  22.755   1.051   5.079 -0.0096  0.0910 -0.0696
 2424CHOL    R227650  22.543   0.944   5.333  0.0206  0.0403 -0.0656
 2424CHOL    R327651  22.986   1.269   5.366  0.0498 -0.0013 -0.0467
 2424CHOL    R427652  22.743   1.057   5.542  0.0606 -0.0293 -0.0658
 2424CHOL    R527653  22.726   0.772   5.306  0.0037  0.0336 -0.1382
 2424CHOL    R627654  23.016   1.055   5.539  0.0601 -0.0490 -0.1071
 2424CHOL    C127655  23.018   1.335   5.762  0.1144 -0.1076 -0.0341
 2424CHOL    C227656  23.101   1.722   5.880  0.4776 -0.1665 -0.1244
 2425CHOL   ROH27657  10.742   3.069   6.882  0.0309 -0.0670  0.0829
 2425CHOL    R127658  10.605   2.844   6.540 -0.1267 -0.0250  0.1175
 2425CHOL    R227659  10.631   3.189   6.574  0.0137 -0.0337  0.1020
 2425CHOL    R327660  10.517   2.893   6.124 -0.1936 -0.0038  0.1341
 2425CHOL    R427661  10.622   3.216   6.265 -0.0394 -0.0396  0.1030
 2425CHOL    R527662  10.861   3.098   6.522 -0.0317 -0.1241  0.0573
 2425CHOL    R627663  10.734   3.057   6.074 -0.1402 -0.0891  0.0844
 2425CHOL    C127664  10.494   3.174   5.837 -0.1443 -0.0035  0.1304
 2425CHOL    C227665  10.192   3.141   5.480  0.1250 -0.0923  0.1455
 2426CHOL   ROH27666   9.753  15.297   7.233  0.0921  0.2133  0.0648
 2426CHOL    R127667   9.735  15.568   6.897 -0.0312  0.1127 -0.0108
 2426CHOL    R227668   9.949  15.298   6.944 -0.0505  0.0933 -0.0341
 2426CHOL    R327669   9.878  15.610   6.496 -0.2234 -0.0336 -0.0963
 2426CHOL    R427670  10.009  15.297   6.640 -0.2016 -0.0101 -0.0646
 2426CHOL    R527671   9.727  15.209   6.864 -0.1054  0.1032  0.1035
 2426CHOL    R627672   9.840  15.344   6.431 -0.2988 -0.0483  0.0044
 2426CHOL    C127673  10.120  15.432   6.226 -0.3853 -0.1552 -0.1630
 2426CHOL    C227674  10.182  15.562   5.834 -0.3319 -0.1364  0.0087
 2427CHOL   ROH27675   7.003  15.308   6.854  0.0760  0.0096  0.0990
 2427CHOL    R127676   7.142  15.144   6.480  0.0270 -0.0848  0.1221
 2427CHOL    R227677   6.876  15.362   6.533  0.1217  0.0406  0.0860
 2427CHOL    R327678   7.098  15.195   6.058  0.0791 -0.0999  0.1148
 2427CHOL    R427679   6.884  15.438   6.233  0.1767  0.0124  0.0801
 2427CHOL    R527680   7.089  15.497   6.535  0.1832 -0.0556  0.0891
 2427CHOL    R627681   7.099  15.472   6.068  0.2038 -0.0988  0.0917
 2427CHOL    C127682   6.891  15.408   5.785  0.1935 -0.0282  0.0831
 2427CHOL    C227683   7.046  15.333   5.382  0.0379 -0.0961  0.2071
 2428CHOL   ROH27684  23.512   7.615   7.494 -0.2632 -0.0348  0.0213
 2428CHOL    R127685  23.612   7.379   7.147 -0.2360 -0.0381  0.0314
 2428CHOL    R227686  23.448   7.686   7.158 -0.1642  0.0012  0.0097
 2428CHOL    R327687  23.634   7.407   6.721 -0.1246 -0.0173  0.0381
 2428CHOL    R427688  23.515   7.727   6.858 -0.0806  0.0035  0.0282
 2428CHOL    R527689  23.696   7.729   7.181 -0.1591 -0.0603  0.0729
 2428CHOL    R627690  23.741   7.663   6.720 -0.0625 -0.0432  0.0797
 2428CHOL    C127691  23.554   7.659   6.416  0.0108  0.0210  0.0334
 2428CHOL    C227692  23.666   7.480   6.036 -0.3652  0.2023 -0.1613
 2429CHOL   ROH27693  15.023  27.017   4.550  0.0668  0.0490  0.2452
 2429CHOL    R127694  15.152  27.177   4.929  0.0034  0.0891  0.2499
 2429CHOL    R227695  14.924  26.921   4.870  0.0992  0.0047  0.2422
 2429CHOL    R327696  15.139  27.090   5.348  0.0318  0.0749  0.2479
 2429CHOL    R427697  14.959  26.827   5.163  0.1314  0.0115  0.2405
 2429CHOL    R527698  15.156  26.825   4.850  0.1356  0.0917  0.2423
 2429CHOL    R627699  15.185  26.819   5.316  0.1333  0.0924  0.2424
 2429CHOL    C127700  14.984  26.828   5.612  0.1269  0.0111  0.2407
 2429CHOL    C227701  15.067  26.914   6.007  0.0362 -0.0356 -0.0627
 2430CHOL   ROH27702  25.305  22.076   3.914  0.0289 -0.1022  0.0975
 2430CHOL    R127703  25.381  22.047   4.337 -0.0606  0.0464  0.1246
 2430CHOL    R227704  25.551  22.238   4.101  0.0335 -0.0900  0.0808
 2430CHOL    R327705  25.600  22.241   4.649 -0.0724  0.1148  0.0904
 2430CHOL    R427706  25.666  22.412   4.330  0.0331 -0.0278  0.0342
 2430CHOL    R527707  25.339  22.361   4.163  0.0524 -0.0113 -0.0084
 2430CHOL    R627708  25.545  22.497   4.560  0.0095  0.0940 -0.0221
 2430CHOL    C127709  25.866  22.537   4.712 -0.0096  0.0729  0.0240
 2430CHOL    C227710  26.195  22.443   4.995  0.1786 -0.2600 -0.2172
 2431CHOL   ROH27711  18.574  20.478   7.450  0.0383 -0.0926 -0.0823
 2431CHOL    R127712  18.595  20.555   7.026  0.0366 -0.0349 -0.0718
 2431CHOL    R227713  18.368  20.354   7.196  0.0218 -0.0383 -0.0955
 2431CHOL    R327714  18.366  20.507   6.668  0.0246  0.0363 -0.0740
 2431CHOL    R427715  18.178  20.367   6.952  0.0178  0.0133 -0.0898
 2431CHOL    R527716  18.294  20.594   7.221  0.0442 -0.0349 -0.0602
 2431CHOL    R627717  18.125  20.577   6.785  0.0335  0.0418 -0.0593
 2431CHOL    C127718  18.022  20.347   6.531  0.0074  0.0869 -0.0895
 2431CHOL    C227719  17.925  20.248   6.115  0.0645 -0.0265 -0.0088
 2432CHOL   ROH27720   3.873  23.131   4.427  0.0882 -0.2064  0.0358
 2432CHOL    R127721   4.166  23.322   4.681 -0.0489  0.0141  0.0308
 2432CHOL    R227722   3.868  23.169   4.774  0.0257 -0.1351  0.0274
 2432CHOL    R327723   4.274  23.359   5.093 -0.1189  0.1639  0.0362
 2432CHOL    R427724   3.974  23.148   5.064  0.0030 -0.0129  0.0448
 2432CHOL    R527725   4.040  22.988   4.737  0.1328 -0.0460  0.0869
 2432CHOL    R627726   4.226  23.094   5.153  0.0243  0.1489  0.0872
 2432CHOL    C127727   4.151  23.256   5.463 -0.1049  0.1738  0.0436
 2432CHOL    C227728   4.459  23.297   5.751 -0.2275 -0.0746  0.3235
 2433CHOL   ROH27729  10.686  18.139   4.323  0.0210  0.0859  0.0284
 2433CHOL    R127730  10.934  18.058   4.667  0.0436  0.1024  0.0160
 2433CHOL    R227731  10.610  18.183   4.661  0.0005 -0.0073  0.0360
 2433CHOL    R327732  10.910  18.019   5.092  0.0499  0.0095  0.0081
 2433CHOL    R427733  10.577  18.102   4.958  0.0232 -0.0776  0.0196
 2433CHOL    R527734  10.598  17.932   4.630  0.0867 -0.0057 -0.0139
 2433CHOL    R627735  10.670  17.881   5.088  0.0969 -0.0721 -0.0229
 2433CHOL    C127736  10.651  18.057   5.399  0.0314 -0.1398  0.0120
 2433CHOL    C227737  10.785  18.147   5.801 -0.2909  0.1988  0.0617
 2434CHOL   ROH27738   4.372   0.556   4.291  0.1252  0.2112  0.0562
 2434CHOL    R127739   4.171   0.825   4.561  0.0552  0.1538  0.0618
 2434CHOL    R227740   4.391   0.568   4.639  0.1374  0.2218  0.0551
 2434CHOL    R327741   4.179   0.954   4.969  0.0348  0.1618  0.0597
 2434CHOL    R427742   4.437   0.696   4.918  0.1112  0.2394  0.0514
 2434CHOL    R527743   4.527   0.767   4.566  0.0734  0.2624  0.0462
 2434CHOL    R627744   4.455   0.960   4.986  0.0339  0.2461  0.0470
 2434CHOL    C127745   4.361   0.879   5.321  0.0739  0.2218  0.0524
 2434CHOL    C227746   4.102   0.932   5.674  0.1363  0.0909 -0.0068
 2435CHOL   ROH27747   4.561  18.089   6.748 -0.1709  0.0098 -0.0625
 2435CHOL    R127748   4.399  17.999   6.358 -0.1074  0.0860 -0.1069
 2435CHOL    R227749   4.642  18.233   6.441 -0.0717  0.0226 -0.0306
 2435CHOL    R327750   4.474  18.069   5.943 -0.0016  0.1112 -0.0839
 2435CHOL    R427751   4.730  18.241   6.144 -0.0058  0.0327 -0.0109
 2435CHOL    R527752   4.753  18.007   6.430 -0.1208 -0.0015 -0.0293
 2435CHOL    R627753   4.748  18.036   5.964 -0.0132  0.0470 -0.0278
 2435CHOL    C127754   4.720  18.271   5.696  0.0981  0.0806 -0.0104
 2435CHOL    C227755   4.697  18.298   5.270  0.0832 -0.1938  0.2333
 2436CHOL   ROH27756  26.357   2.715   7.459  0.2151 -0.0252 -0.0915
 2436CHOL    R127757  26.001   2.766   7.221  0.1308 -0.0751  0.0230
 2436CHOL    R227758  26.332   2.760   7.114  0.0978 -0.0249 -0.0834
 2436CHOL    R327759  25.871   2.762   6.814  0.0005 -0.0897  0.0642
 2436CHOL    R427760  26.234   2.703   6.826  0.0136 -0.0361 -0.0528
 2436CHOL    R527761  26.257   2.521   7.148  0.1438 -0.0364 -0.0617
 2436CHOL    R627762  26.027   2.546   6.742  0.0096 -0.0658  0.0118
 2436CHOL    C127763  26.011   2.732   6.437 -0.1156 -0.0646  0.0186
 2436CHOL    C227764  25.927   2.842   6.034 -0.2481  0.0225 -0.3808
 2437CHOL   ROH27765   4.457  13.578   3.702  0.1287  0.1533 -0.0541
 2437CHOL    R127766   4.753  13.337   3.904  0.1285  0.1512 -0.0562
 2437CHOL    R227767   4.621  13.644   4.003  0.0623  0.1076 -0.0077
 2437CHOL    R327768   4.950  13.302   4.281  0.0634  0.0925 -0.0274
 2437CHOL    R427769   4.720  13.589   4.291  0.0168  0.0545 -0.0021
 2437CHOL    R527770   4.455  13.464   4.064  0.0785  0.0669 -0.0813
 2437CHOL    R627771   4.723  13.354   4.431  0.0271  0.0216 -0.0571
 2437CHOL    C127772   4.983  13.483   4.640 -0.0320  0.0128  0.0223
 2437CHOL    C227773   5.322  13.372   4.924 -0.1826  0.0453  0.0824
 2438CHOL   ROH27774   8.694  10.191   6.933  0.0058  0.2355 -0.0070
 2438CHOL    R127775   8.399  10.221   6.620 -0.0208  0.3012  0.0241
 2438CHOL    R227776   8.746  10.222   6.590 -0.0233  0.0975 -0.0244
 2438CHOL    R327777   8.365  10.199   6.194 -0.0913  0.1859  0.0355
 2438CHOL    R427778   8.717  10.151   6.290 -0.1040  0.0185  0.0017
 2438CHOL    R527779   8.671   9.983   6.617 -0.1543  0.1472  0.0615
 2438CHOL    R627780   8.538   9.984   6.168 -0.2146  0.0797  0.0789
 2438CHOL    C127781   8.587  10.159   5.860 -0.1585 -0.0447  0.0169
 2438CHOL    C227782   8.272  10.173   5.573 -0.0441  0.5310  0.0973
 2439CHOL   ROH27783   7.969  18.336   4.263  0.0492  0.0244 -0.0374
 2439CHOL    R127784   8.018  18.365   4.691  0.1388  0.1145 -0.0533
 2439CHOL    R227785   7.764  18.497   4.495  0.0279 -0.0364 -0.0136
 2439CHOL    R327786   7.803  18.476   5.043  0.1702  0.0676 -0.0191
 2439CHOL    R427787   7.588  18.526   4.749  0.0749 -0.0801  0.0240
 2439CHOL    R527788   7.714  18.253   4.532  0.1526 -0.0548  0.0370
 2439CHOL    R627789   7.565  18.359   4.963  0.2057 -0.0578  0.0561
 2439CHOL    C127790   7.451  18.632   5.163  0.1241 -0.0803  0.0404
 2439CHOL    C227791   7.421  18.722   5.584 -0.1935 -0.1816 -0.1361
 2440CHOL   ROH27792  17.799  18.677   4.312  0.2295 -0.0564  0.0422
 2440CHOL    R127793  17.655  18.833   4.687  0.0861 -0.0652 -0.0087
 2440CHOL    R227794  17.702  18.500   4.596  0.1219 -0.0629  0.0017
 2440CHOL    R327795  17.577  18.710   5.090 -0.0665 -0.0745 -0.0404
 2440CHOL    R427796  17.699  18.422   4.896  0.0082 -0.0698 -0.0006
 2440CHOL    R527797  17.926  18.596   4.661  0.0971 -0.0637  0.0890
 2440CHOL    R627798  17.805  18.554   5.110 -0.0735 -0.0741  0.0426
 2440CHOL    C127799  17.577  18.384   5.327 -0.1554 -0.0798 -0.0475
 2440CHOL    C227800  17.417  18.298   5.737  0.0766  0.1271  0.2217
 2441CHOL   ROH27801   2.437  25.665   7.586  0.0552 -0.3029  0.0382
 2441CHOL    R127802   2.547  25.842   7.208 -0.1237 -0.1036  0.0774
 2441CHOL    R227803   2.439  25.517   7.270  0.0953 -0.1959 -0.0122
 2441CHOL    R327804   2.522  25.769   6.787 -0.1499  0.0221  0.0566
 2441CHOL    R427805   2.370  25.487   6.969  0.0621 -0.1383 -0.0105
 2441CHOL    R527806   2.236  25.668   7.263 -0.0033 -0.3228  0.0743
 2441CHOL    R627807   2.264  25.671   6.796 -0.0860 -0.1472  0.0696
 2441CHOL    C127808   2.404  25.491   6.521 -0.0177  0.0348 -0.0160
 2441CHOL    C227809   2.656  25.492   6.161  0.2169  0.1471 -0.4309
 2442CHOL   ROH27810   2.483  11.543   7.109  0.1205  0.1874 -0.0406
 2442CHOL    R127811   2.741  11.596   6.767 -0.0001  0.0805 -0.1490
 2442CHOL    R227812   2.410  11.487   6.773 -0.0166  0.1361 -0.0030
 2442CHOL    R327813   2.726  11.616   6.340 -0.1589  0.0025 -0.1477
 2442CHOL    R427814   2.387  11.555   6.471 -0.1198  0.0832 -0.0074
 2442CHOL    R527815   2.410  11.739   6.792  0.0326  0.1399 -0.0500
 2442CHOL    R627816   2.493  11.765   6.332 -0.1373  0.0396 -0.0872
 2442CHOL    C127817   2.471  11.575   6.030 -0.2838 -0.0138 -0.0439
 2442CHOL    C227818   2.574  11.428   5.614  0.0119  0.2025  0.1445
 2443CHOL   ROH27819  14.298  10.728   7.107  0.1925  0.2231  0.0027
 2443CHOL    R127820  13.978  10.777   6.822  0.0159 -0.1606  0.1284
 2443CHOL    R227821  14.316  10.723   6.759  0.0620  0.2500 -0.0052
 2443CHOL    R327822  13.895  10.725   6.405 -0.0868 -0.2579  0.1606
 2443CHOL    R427823  14.245  10.633   6.471  0.0568  0.1652  0.0223
 2443CHOL    R527824  14.211  10.501   6.816  0.3525  0.1182  0.0358
 2443CHOL    R627825  14.032  10.486   6.384  0.1977 -0.0943  0.1057
 2443CHOL    C127826  14.071  10.625   6.057 -0.0996 -0.0404  0.0901
 2443CHOL    C227827  13.774  10.736   5.734  0.2116 -0.0551 -0.1653
 2444CHOL   ROH27828   0.547   3.249   4.142 -0.0905 -0.2007  0.1900
 2444CHOL    R127829   0.669   3.188   4.551  0.1390  0.0137  0.1559
 2444CHOL    R227830   0.523   3.470   4.410 -0.1373 -0.1368  0.1334
 2444CHOL    R327831   0.626   3.360   4.940  0.1823  0.0987  0.1233
 2444CHOL    R427832   0.444   3.566   4.694 -0.0832 -0.1102  0.1395
 2444CHOL    R527833   0.340   3.303   4.456  0.0077 -0.2619  0.2658
 2444CHOL    R627834   0.357   3.421   4.908  0.1209 -0.1125  0.2232
 2444CHOL    C127835   0.468   3.680   5.128  0.0253  0.0383  0.0956
 2444CHOL    C227836   0.629   3.762   5.541 -0.1863 -0.0504  0.2802
 2445CHOL   ROH27837  10.956   3.542   7.042  0.0402  0.2130  0.0459
 2445CHOL    R127838  11.122   3.336   6.701  0.0483  0.1192  0.1063
 2445CHOL    R227839  10.838   3.537   6.714  0.0625  0.1435  0.0389
 2445CHOL    R327840  11.091   3.320   6.275  0.0765  0.0198  0.1075
 2445CHOL    R427841  10.852   3.568   6.406  0.0858  0.0690  0.0322
 2445CHOL    R527842  11.040   3.687   6.701  0.0746  0.1255  0.0167
 2445CHOL    R627843  11.070   3.595   6.244  0.0990  0.0141  0.0406
 2445CHOL    C127844  10.879   3.472   5.968  0.1089 -0.0376  0.0566
 2445CHOL    C227845  10.822   3.375   5.534  0.1168 -0.0148 -0.1089
 2446CHOL   ROH27846  24.496  19.167   7.059  0.0148 -0.2791 -0.0289
 2446CHOL    R127847  24.351  18.953   6.713 -0.2511 -0.0871 -0.0394
 2446CHOL    R227848  24.382  19.297   6.756  0.1362 -0.1216 -0.0083
 2446CHOL    R327849  24.257  19.013   6.301 -0.2147  0.0581 -0.0269
 2446CHOL    R427850  24.368  19.332   6.448  0.1530 -0.0764 -0.0040
 2446CHOL    R527851  24.610  19.204   6.698  0.0317 -0.3713 -0.0335
 2446CHOL    R627852  24.475  19.176   6.251 -0.0340 -0.1793 -0.0267
 2446CHOL    C127853  24.233  19.303   6.021  0.0874  0.1149  0.0027
 2446CHOL    C227854  24.051  19.132   5.660 -0.2821  0.0601  0.0453
 2447CHOL   ROH27855  17.431   2.997   6.691 -0.0487 -0.1152  0.1334
 2447CHOL    R127856  17.600   2.893   6.308  0.0295  0.0529  0.1212
 2447CHOL    R227857  17.279   3.007   6.377 -0.0592 -0.1986  0.1356
 2447CHOL    R327858  17.522   2.930   5.889 -0.0020  0.0369  0.1256
 2447CHOL    R427859  17.247   3.084   6.079 -0.1197 -0.1920  0.1438
 2447CHOL    R527860  17.434   3.207   6.374 -0.2101 -0.0790  0.1550
 2447CHOL    R627861  17.430   3.190   5.906 -0.2008 -0.0339  0.1533
 2447CHOL    C127862  17.243   3.062   5.630 -0.1057 -0.1484  0.1414
 2447CHOL    C227863  17.213   3.082   5.176 -0.0618  0.4400  0.1945
 2448CHOL   ROH27864  18.414  10.141   6.486  0.0091 -0.0125 -0.0912
 2448CHOL    R127865  18.264  10.259   6.099 -0.0651 -0.0581 -0.0765
 2448CHOL    R227866  18.572  10.333   6.241 -0.0596  0.0064 -0.1210
 2448CHOL    R327867  18.396  10.426   5.728 -0.1459 -0.0498 -0.1018
 2448CHOL    R427868  18.681  10.401   5.959 -0.1101  0.0143 -0.1388
 2448CHOL    R527869  18.583  10.098   6.148 -0.0279  0.0042 -0.1119
 2448CHOL    R627870  18.631  10.280   5.720 -0.1192 -0.0060 -0.1266
 2448CHOL    C127871  18.722  10.580   5.549 -0.1986  0.0037 -0.1524
 2448CHOL    C227872  18.628  11.013   5.418  0.0154  0.0078  0.0592
 2449CHOL   ROH27873  17.845  19.576   7.279 -0.1233 -0.2163 -0.0133
 2449CHOL    R127874  17.555  19.648   6.968 -0.0855 -0.0366 -0.0081
 2449CHOL    R227875  17.902  19.656   6.944 -0.0795 -0.2588 -0.0162
 2449CHOL    R327876  17.525  19.686   6.543 -0.0710 -0.0265 -0.0082
 2449CHOL    R427877  17.877  19.628   6.636 -0.1044 -0.2493 -0.0151
 2449CHOL    R527878  17.828  19.414   6.935 -0.2340 -0.2132 -0.0097
 2449CHOL    R627879  17.701  19.479   6.490 -0.2037 -0.1408 -0.0081
 2449CHOL    C127880  17.752  19.695   6.210 -0.0714 -0.1781 -0.0136
 2449CHOL    C227881  17.659  19.868   5.826  0.1088 -0.0593 -0.0131
 2450CHOL   ROH27882  19.604  16.869   3.848  0.1294  0.1728  0.0393
 2450CHOL    R127883  19.511  16.864   4.269  0.0798  0.0233  0.0270
 2450CHOL    R227884  19.801  16.753   4.111  0.1321  0.1551  0.0294
 2450CHOL    R327885  19.697  16.807   4.650  0.0506 -0.0312  0.0332
 2450CHOL    R427886  19.949  16.765   4.384  0.0954  0.1206  0.0510
 2450CHOL    R527887  19.815  17.004   4.134  0.0546  0.1534  0.1039
 2450CHOL    R627888  19.926  16.949   4.585  0.0165  0.0560  0.1017
 2450CHOL    C127889  20.051  16.708   4.817  0.0601  0.0255  0.0470
 2450CHOL    C227890  20.121  16.697   5.263  0.0296  0.0435 -0.1192
 2451CHOL   ROH27891   4.848  23.161   4.216 -0.2802 -0.0276  0.0648
 2451CHOL    R127892   5.168  23.016   4.466 -0.1733  0.0953  0.0003
 2451CHOL    R227893   4.916  23.242   4.548 -0.2375  0.0071  0.0476
 2451CHOL    R327894   5.290  23.006   4.876 -0.0809  0.1516 -0.0256
 2451CHOL    R427895   4.972  23.190   4.848 -0.1537  0.0366  0.0372
 2451CHOL    R527896   4.820  23.009   4.563 -0.1505 -0.0273  0.0757
 2451CHOL    R627897   5.036  22.956   4.974 -0.0421  0.0631  0.0309
 2451CHOL    C127898   5.185  23.142   5.241 -0.0511  0.1253 -0.0071
 2451CHOL    C227899   5.319  23.218   5.660  0.2252 -0.2938 -0.1720
 2452CHOL   ROH27900   7.215  22.944   4.506  0.0111  0.2312  0.0387
 2452CHOL    R127901   7.553  22.820   4.745 -0.0432  0.0516  0.0243
 2452CHOL    R227902   7.290  23.029   4.836  0.0335  0.1334  0.0593
 2452CHOL    R327903   7.691  22.819   5.150 -0.0567 -0.0860  0.0287
 2452CHOL    R427904   7.361  22.981   5.134  0.0056  0.0440  0.0516
 2452CHOL    R527905   7.210  22.791   4.854 -0.0586  0.1597  0.0066
 2452CHOL    R627906   7.444  22.752   5.257 -0.0859 -0.0144  0.0066
 2452CHOL    C127907   7.591  22.947   5.518 -0.0193 -0.1250  0.0525
 2452CHOL    C227908   7.877  22.936   5.837 -0.0173 -0.0724  0.0828
 2453CHOL   ROH27909  27.414  22.646   7.063 -0.2135 -0.0241 -0.0860
 2453CHOL    R127910  27.511  22.842   6.692 -0.0052 -0.0789 -0.0613
 2453CHOL    R227911  27.455  22.503   6.748 -0.2305 -0.0457 -0.0785
 2453CHOL    R327912  27.520  22.770   6.270  0.0462 -0.0775 -0.0605
 2453CHOL    R427913  27.407  22.465   6.444 -0.1853 -0.0113 -0.0901
 2453CHOL    R527914  27.231  22.618   6.731 -0.1560  0.0956 -0.1284
 2453CHOL    R627915  27.281  22.630   6.267 -0.0421  0.0716 -0.1170
 2453CHOL    C127916  27.462  22.478   5.998 -0.0750 -0.0383 -0.0777
 2453CHOL    C227917  27.650  22.533   5.616 -0.0661  0.0825  0.2121
 2454CHOL   ROH27918  10.503   7.476   7.160 -0.1025  0.1170 -0.0605
 2454CHOL    R127919  10.528   7.660   6.771 -0.0458  0.0262 -0.1002
 2454CHOL    R227920  10.618   7.337   6.862 -0.0507  0.0500 -0.0095
 2454CHOL    R327921  10.588   7.560   6.359  0.0228 -0.0689 -0.0672
 2454CHOL    R427922  10.608   7.254   6.563 -0.0008 -0.0206  0.0080
 2454CHOL    R527923  10.368   7.342   6.831 -0.0462  0.0356 -0.0508
 2454CHOL    R627924  10.433   7.331   6.368  0.0281 -0.0714 -0.0383
 2454CHOL    C127925  10.675   7.248   6.119  0.0703 -0.1232  0.0199
 2454CHOL    C227926  10.847   7.319   5.723 -0.0729  0.1714  0.0330
 2455CHOL   ROH27927   3.588  14.033   3.791  0.3833  0.0432 -0.3008
 2455CHOL    R127928   3.745  13.728   4.052  0.0540 -0.0389 -0.1937
 2455CHOL    R227929   3.767  14.074   4.087  0.2486 -0.0492 -0.2052
 2455CHOL    R327930   3.910  13.680   4.444 -0.1878 -0.1170 -0.0995
 2455CHOL    R427931   3.834  14.036   4.387  0.0621 -0.0720 -0.1654
 2455CHOL    R527932   3.539  14.002   4.166  0.1595  0.0966 -0.3242
 2455CHOL    R627933   3.733  13.855   4.565 -0.1470  0.0005 -0.2074
 2455CHOL    C127934   4.026  13.892   4.767 -0.2321 -0.1677 -0.0501
 2455CHOL    C227935   4.308  13.624   5.021 -0.2065  0.0188  0.0714
 2456CHOL   ROH27936  12.724   5.630   5.316 -0.1331  0.0949 -0.0369
 2456CHOL    R127937  13.050   5.861   5.152 -0.0185 -0.0714 -0.0450
 2456CHOL    R227938  12.883   5.909   5.454 -0.0454  0.0671 -0.0811
 2456CHOL    R327939  13.337   6.157   5.266  0.0802 -0.1548 -0.0747
 2456CHOL    R427940  13.121   6.080   5.554  0.0067 -0.0009 -0.0877
 2456CHOL    R527941  13.051   5.723   5.486 -0.1222  0.0092 -0.0109
 2456CHOL    R627942  13.388   6.045   5.514 -0.0005 -0.1151 -0.0394
 2456CHOL    C127943  13.442   6.393   5.575  0.1257 -0.1204 -0.1164
 2456CHOL    C227944  13.697   6.683   5.396  0.1708  0.1736  0.2339
 2457CHOL   ROH27945   9.855  11.176   7.080 -0.1890  0.3788  0.1390
 2457CHOL    R127946   9.882  11.187   6.649 -0.0840 -0.0949  0.1288
 2457CHOL    R227947  10.110  11.309   6.882 -0.2149  0.3047  0.0549
 2457CHOL    R327948  10.164  11.263   6.337 -0.0468 -0.2861  0.1145
 2457CHOL    R427949  10.328  11.311   6.663 -0.1585  0.1811  0.1088
 2457CHOL    R527950  10.144  11.060   6.863 -0.0635  0.2985  0.3468
 2457CHOL    R627951  10.373  11.132   6.462 -0.0012 -0.0243  0.3219
 2457CHOL    C127952  10.543  11.384   6.275 -0.1008 -0.1337  0.0785
 2457CHOL    C227953  10.744  11.431   5.902 -0.1995  0.0655  0.0498
 2458CHOL   ROH27954  10.010   8.779   7.320  0.1224  0.1711  0.0190
 2458CHOL    R127955  10.170   9.082   7.059 -0.1046  0.2014 -0.0873
 2458CHOL    R227956  10.037   8.773   6.972  0.0832  0.0891  0.0171
 2458CHOL    R327957  10.186   9.190   6.645 -0.2246  0.0943 -0.1203
 2458CHOL    R427958   9.999   8.875   6.682 -0.0184 -0.0173 -0.0078
 2458CHOL    R527959   9.845   8.932   7.014 -0.0147 -0.0216 -0.0054
 2458CHOL    R627960   9.923   9.122   6.594 -0.1884 -0.0902 -0.0694
 2458CHOL    C127961  10.080   9.057   6.279 -0.1848 -0.0787 -0.0700
 2458CHOL    C227962  10.222   9.185   5.903  0.0388 -0.2454  0.0680
 2459CHOL   ROH27963  18.585  22.449   7.522  0.1972 -0.0965  0.0722
 2459CHOL    R127964  18.455  22.182   7.210 -0.1166 -0.0536  0.1624
 2459CHOL    R227965  18.382  22.520   7.248  0.1692  0.0156  0.1214
 2459CHOL    R327966  18.272  22.188   6.823 -0.2316  0.0198  0.2174
 2459CHOL    R427967  18.301  22.533   6.949  0.0871  0.0234  0.1437
 2459CHOL    R527968  18.612  22.501   7.147  0.1245 -0.1910  0.0535
 2459CHOL    R627969  18.414  22.408   6.734 -0.0790 -0.1109  0.1319
 2459CHOL    C127970  18.106  22.440   6.555 -0.1107  0.1044  0.2211
 2459CHOL    C227971  18.249  22.444   6.150  0.1321  0.0092 -0.3873
 2460CHOL   ROH27972  22.911   9.385   6.984 -0.0135 -0.0135 -0.0069
 2460CHOL    R127973  22.704   9.344   6.608 -0.0051  0.0419 -0.0177
 2460CHOL    R227974  22.995   9.522   6.675  0.0171 -0.0033  0.0060
 2460CHOL    R327975  22.759   9.414   6.189  0.0202  0.0639 -0.0107
 2460CHOL    R427976  23.060   9.522   6.371  0.0286  0.0094  0.0085
 2460CHOL    R527977  23.056   9.278   6.650 -0.0157 -0.0101 -0.0090
 2460CHOL    R627978  23.021   9.326   6.186  0.0083  0.0278 -0.0070
 2460CHOL    C127979  23.020   9.572   5.926  0.0522  0.0464  0.0105
 2460CHOL    C227980  22.887   9.684   5.501 -0.2034  0.0939  0.1661
 2461CHOL   ROH27981   7.629  19.250   5.790 -0.1065 -0.3281 -0.0189
 2461CHOL    R127982   7.426  18.969   6.047 -0.0698 -0.2391  0.1083
 2461CHOL    R227983   7.641  19.227   6.138 -0.0075 -0.2463 -0.0166
 2461CHOL    R327984   7.332  18.904   6.459  0.0422 -0.1274  0.1521
 2461CHOL    R427985   7.529  19.213   6.426  0.0752 -0.1618  0.0200
 2461CHOL    R527986   7.413  19.327   6.094 -0.0070 -0.2259  0.0264
 2461CHOL    R627987   7.273  19.170   6.511  0.0938 -0.1069  0.1059
 2461CHOL    C127988   7.397  19.057   6.827  0.1710 -0.0481  0.0968
 2461CHOL    C227989   7.335  18.856   7.169  0.0384  0.2206 -0.3663
 2462CHOL   ROH27990   4.114  22.951   7.060 -0.0698  0.2532  0.0375
 2462CHOL    R127991   3.781  22.737   6.888  0.0251  0.1480 -0.0171
 2462CHOL    R227992   3.968  22.993   6.745 -0.0210  0.1955  0.0069
 2462CHOL    R327993   3.584  22.675   6.514  0.1158  0.0724 -0.0525
 2462CHOL    R427994   3.864  22.908   6.466  0.0578  0.1513 -0.0093
 2462CHOL    R527995   4.098  22.778   6.722  0.0461  0.2317  0.0427
 2462CHOL    R627996   3.818  22.658   6.367  0.1494  0.1328 -0.0062
 2462CHOL    C127997   3.590  22.795   6.129  0.1557  0.0549 -0.0574
 2462CHOL    C227998   3.220  22.752   5.931 -0.0842  0.0222 -0.0685
 2463CHOL   ROH27999   5.116   1.443   4.227  0.2820 -0.0475  0.0672
 2463CHOL    R128000   4.975   1.251   4.587 -0.0676  0.1114  0.0192
 2463CHOL    R228001   5.150   1.550   4.558  0.2336 -0.0553  0.0747
 2463CHOL    R328002   4.914   1.328   5.003 -0.1841  0.2004 -0.0139
 2463CHOL    R428003   5.057   1.628   4.843  0.1763  0.0548  0.0268
 2463CHOL    R528004   4.908   1.596   4.506  0.2986  0.1734 -0.0395
 2463CHOL    R628005   4.817   1.584   4.964  0.0771  0.2934 -0.0791
 2463CHOL    C128006   4.974   1.611   5.284 -0.0418  0.1662 -0.0089
 2463CHOL    C228007   5.106   1.376   5.645 -0.1752  0.0501 -0.1367
 2464CHOL   ROH28008   8.178  27.158   7.067 -0.1347  0.0701  0.1366
 2464CHOL    R128009   8.195  27.232   6.643  0.1841 -0.1004  0.1167
 2464CHOL    R228010   8.039  26.970   6.810 -0.1172  0.0777  0.1216
 2464CHOL    R328011   8.015  27.105   6.276  0.3147 -0.1016  0.0522
 2464CHOL    R428012   7.869  26.915   6.556 -0.0025  0.1107  0.0365
 2464CHOL    R528013   7.888  27.172   6.823  0.0242  0.1977 -0.0482
 2464CHOL    R628014   7.759  27.093   6.380  0.2383  0.1299 -0.1000
 2464CHOL    C128015   7.751  26.838   6.130  0.2033  0.0405 -0.0088
 2464CHOL    C228016   7.530  26.780   5.724  0.0481 -0.0812 -0.0581
 2465CHOL   ROH28017   7.133  22.610   7.658 -0.0860  0.1243  0.1332
 2465CHOL    R128018   7.034  22.963   7.431  0.1057  0.1936  0.1555
 2465CHOL    R228019   7.279  22.726   7.363 -0.0944  0.0044  0.0810
 2465CHOL    R328020   7.105  23.145   7.051  0.1172  0.1276  0.1262
 2465CHOL    R428021   7.289  22.826   7.070 -0.1159 -0.0121  0.0746
 2465CHOL    R528022   7.057  22.634   7.286 -0.1914  0.1689  0.1570
 2465CHOL    R628023   7.084  22.908   6.909 -0.1088  0.1371  0.1398
 2465CHOL    C128024   7.317  23.095   6.711 -0.0315 -0.0442  0.0571
 2465CHOL    C228025   7.061  23.286   6.448 -0.0126 -0.0246  0.3885
 2466CHOL   ROH28026  17.442  16.774   5.600 -0.0012  0.0103 -0.0528
 2466CHOL    R128027  17.539  16.470   5.310  0.0283  0.0393 -0.0735
 2466CHOL    R228028  17.607  16.471   5.651 -0.0524 -0.0184 -0.0568
 2466CHOL    R328029  17.671  16.064   5.287 -0.0184  0.0254 -0.0999
 2466CHOL    R428030  17.649  16.164   5.640 -0.0894 -0.0224 -0.0906
 2466CHOL    R528031  17.366  16.402   5.620 -0.0540  0.0169 -0.1238
 2466CHOL    R628032  17.514  15.976   5.497 -0.0795  0.0155 -0.1498
 2466CHOL    C128033  17.796  15.757   5.518 -0.1125 -0.0238 -0.1140
 2466CHOL    C228034  17.729  15.356   5.368 -0.1284  0.4444 -0.0636
 2467CHOL   ROH28035  26.787   8.848   7.526  0.0416 -0.1126 -0.0679
 2467CHOL    R128036  26.497   9.004   7.247 -0.0429 -0.2673 -0.0677
 2467CHOL    R228037  26.836   8.946   7.195  0.0171  0.0301 -0.0303
 2467CHOL    R328038  26.447   9.086   6.830 -0.0403 -0.1802 -0.0511
 2467CHOL    R428039  26.785   8.951   6.889  0.0638  0.0814 -0.0372
 2467CHOL    R528040  26.714   8.726   7.174  0.2024 -0.0663 -0.1181
 2467CHOL    R628041  26.573   8.854   6.747  0.1672 -0.0518 -0.1021
 2467CHOL    C128042  26.649   9.081   6.481  0.0241  0.0937 -0.0202
 2467CHOL    C228043  26.472   8.864   6.129  0.3744  0.2416  0.0057
 2468CHOL   ROH28044  14.684   1.109   7.352 -0.0731  0.0672 -0.1387
 2468CHOL    R128045  14.815   0.947   6.974 -0.0105 -0.0020 -0.0878
 2468CHOL    R228046  14.684   1.263   7.039  0.0168  0.0244 -0.1601
 2468CHOL    R328047  14.909   1.070   6.575  0.0944 -0.0692 -0.0841
 2468CHOL    R428048  14.803   1.363   6.771  0.0898 -0.0282 -0.1477
 2468CHOL    R528049  14.928   1.264   7.105  0.0025  0.0009 -0.1062
 2468CHOL    R628050  15.041   1.300   6.653  0.1079 -0.0761 -0.0864
 2468CHOL    C128051  14.907   1.393   6.335  0.1908 -0.1017 -0.1292
 2468CHOL    C228052  15.057   1.341   5.905  0.1093 -0.0922 -0.2178
 2469CHOL   ROH28053  25.772  26.712   7.235 -0.3277  0.0166  0.1028
 2469CHOL    R128054  25.524  26.708   6.882 -0.1946  0.1453  0.0065
 2469CHOL    R228055  25.856  26.808   6.910 -0.1481 -0.0399  0.1315
 2469CHOL    R328056  25.551  26.742   6.457 -0.0113  0.1173  0.0153
 2469CHOL    R428057  25.887  26.778   6.603 -0.0463 -0.0665  0.1440
 2469CHOL    R528058  25.851  26.556   6.898 -0.2846 -0.0382  0.1381
 2469CHOL    R628059  25.781  26.589   6.436 -0.0879 -0.0128  0.1094
 2469CHOL    C128060  25.816  26.814   6.161  0.1450 -0.0394  0.1146
 2469CHOL    C228061  25.786  26.757   5.745  0.1981 -0.0088 -0.1934
 2470CHOL   ROH28062  18.589  20.401   4.112 -0.2194  0.1028 -0.0021
 2470CHOL    R128063  18.287  20.245   4.377 -0.1267 -0.1615 -0.0488
 2470CHOL    R228064  18.631  20.194   4.389 -0.0754  0.1782  0.0333
 2470CHOL    R328065  18.247  20.050   4.756 -0.0180 -0.1541 -0.0331
 2470CHOL    R428066  18.604  20.104   4.685 -0.0519  0.1889  0.0387
 2470CHOL    R528067  18.582  20.419   4.491 -0.3203  0.1455 -0.0058
 2470CHOL    R628068  18.441  20.203   4.881 -0.1932  0.0555 -0.0093
 2470CHOL    C128069  18.465  19.892   5.055  0.0757  0.0987  0.0352
 2470CHOL    C228070  18.386  19.674   5.436 -0.0683  0.1553 -0.0441
 2471CHOL   ROH28071  14.357   4.569   7.177  0.0841  0.1055 -0.0832
 2471CHOL    R128072  14.272   4.642   6.760  0.1173  0.3097 -0.0549
 2471CHOL    R228073  14.582   4.597   6.912  0.0896 -0.0425 -0.0950
 2471CHOL    R328074  14.460   4.630   6.376  0.0713  0.2326 -0.0752
 2471CHOL    R428075  14.705   4.534   6.634  0.0027 -0.0856 -0.1241
 2471CHOL    R528076  14.479   4.370   6.877 -0.1408  0.0683 -0.1514
 2471CHOL    R628077  14.597   4.395   6.425 -0.1566  0.0792 -0.1549
 2471CHOL    C128078  14.817   4.565   6.200 -0.0062 -0.0731 -0.1255
 2471CHOL    C228079  14.894   4.541   5.774 -0.1241 -0.1048  0.3947
 2472CHOL   ROH28080  25.388  13.914   7.089  0.0239 -0.0448 -0.1298
 2472CHOL    R128081  25.201  13.735   6.744 -0.0271 -0.0739 -0.0874
 2472CHOL    R228082  25.416  14.008   6.755 -0.1209  0.0025 -0.1296
 2472CHOL    R328083  25.222  13.737   6.317 -0.1692 -0.0190 -0.0950
 2472CHOL    R428084  25.472  13.971   6.452 -0.2080  0.0557 -0.1523
 2472CHOL    R528085  25.556  13.798   6.768 -0.0406  0.0505 -0.1986
 2472CHOL    R628086  25.499  13.741   6.308 -0.1732  0.0811 -0.1865
 2472CHOL    C128087  25.411  13.918   6.010 -0.3357  0.0827 -0.1385
 2472CHOL    C228088  25.496  13.845   5.601  0.0862  0.0923 -0.0078
 2473CHOL   ROH28089  20.670   2.923   6.866 -0.1643 -0.0467 -0.0900
 2473CHOL    R128090  20.715   2.609   6.574  0.0809  0.0166 -0.1226
 2473CHOL    R228091  20.540   2.908   6.543 -0.1468 -0.1108 -0.0943
 2473CHOL    R328092  20.654   2.532   6.158  0.1484  0.0141 -0.1323
 2473CHOL    R428093  20.546   2.875   6.235 -0.1147 -0.0738 -0.0978
 2473CHOL    R528094  20.785   2.957   6.506 -0.1812  0.0793 -0.0840
 2473CHOL    R628095  20.746   2.780   6.075 -0.0371  0.0941 -0.1039
 2473CHOL    C128096  20.504   2.700   5.823  0.0273 -0.0628 -0.1174
 2473CHOL    C228097  20.613   2.538   5.444  0.1920 -0.2119 -0.1957
 2474CHOL   ROH28098  13.374  14.260   4.204  0.1466 -0.1585 -0.1044
 2474CHOL    R128099  13.139  13.915   4.314 -0.1428  0.0345 -0.1062
 2474CHOL    R228100  13.318  14.128   4.522  0.0876 -0.1499 -0.1111
 2474CHOL    R328101  12.968  13.725   4.656 -0.2504  0.1421 -0.0995
 2474CHOL    R428102  13.152  14.026   4.763  0.0391 -0.0329 -0.0940
 2474CHOL    R528103  13.099  14.240   4.466  0.1750  0.0537 -0.0567
 2474CHOL    R628104  12.887  13.961   4.775 -0.0183  0.2016 -0.0540
 2474CHOL    C128105  12.952  13.753   5.058 -0.1516  0.1062 -0.0926
 2474CHOL    C228106  12.842  13.380   5.255 -0.1135  0.2133 -0.4516
 2475CHOL   ROH28107  16.259  11.395   3.969 -0.0065  0.0781 -0.0028
 2475CHOL    R128108  15.956  11.270   4.249  0.0175 -0.0136 -0.0174
 2475CHOL    R228109  16.281  11.375   4.316  0.0059  0.0151 -0.0069
 2475CHOL    R328110  15.870  11.273   4.668  0.0290 -0.1038 -0.0141
 2475CHOL    R428111  16.199  11.429   4.610  0.0077 -0.0510  0.0057
 2475CHOL    R528112  16.139  11.580   4.278 -0.0213  0.0044  0.0359
 2475CHOL    R628113  15.965  11.530   4.709 -0.0024 -0.0993  0.0317
 2475CHOL    C128114  16.032  11.374   5.024  0.0264 -0.1505  0.0004
 2475CHOL    C228115  15.929  11.098   5.363 -0.3835 -0.2933 -0.2683
 2476CHOL   ROH28116  26.356  12.856   5.225 -0.0970  0.0398  0.1660
 2476CHOL    R128117  26.739  12.823   5.421  0.0273 -0.0979 -0.0944
 2476CHOL    R228118  26.476  12.595   5.422 -0.0984  0.0438  0.1720
 2476CHOL    R328119  26.987  12.535   5.618  0.0118 -0.1640 -0.1710
 2476CHOL    R428120  26.673  12.374   5.513 -0.1529 -0.0315  0.1082
 2476CHOL    R528121  26.602  12.567   5.206 -0.2664 -0.1012  0.0900
 2476CHOL    R628122  26.932  12.331   5.438 -0.2270 -0.1984 -0.0626
 2476CHOL    C128123  26.990  12.151   5.742 -0.1092 -0.1230 -0.0396
 2476CHOL    C228124  27.129  12.118   6.140 -0.3720 -0.1495  0.1406
 2477CHOL   ROH28125  23.181  25.960   3.740 -0.0874 -0.0307  0.0583
 2477CHOL    R128126  23.093  25.908   4.159 -0.1799  0.0966  0.0554
 2477CHOL    R228127  23.311  26.135   4.012  0.0066 -0.0843  0.0481
 2477CHOL    R328128  23.148  26.102   4.536 -0.0863  0.1144  0.0328
 2477CHOL    R428129  23.305  26.304   4.272  0.0963 -0.0394  0.0216
 2477CHOL    R528130  23.077  26.227   3.990  0.0750  0.0844  0.0045
 2477CHOL    R628131  23.096  26.356   4.439  0.1115  0.1393 -0.0128
 2477CHOL    C128132  23.326  26.422   4.705  0.1272  0.0112  0.0063
 2477CHOL    C228133  23.519  26.436   5.096 -0.0472  0.0184 -0.1358
 2478CHOL   ROH28134  21.290  20.531   7.170  0.0412  0.0559  0.0877
 2478CHOL    R128135  21.616  20.495   6.890  0.0667  0.0010  0.1244
 2478CHOL    R228136  21.275  20.460   6.829  0.0728 -0.0173  0.1014
 2478CHOL    R328137  21.692  20.476   6.470  0.1047 -0.0878  0.1350
 2478CHOL    R428138  21.330  20.502   6.527  0.0991 -0.0809  0.0971
 2478CHOL    R528139  21.329  20.706   6.835  0.0686 -0.0149  0.0535
 2478CHOL    R628140  21.506  20.670   6.404  0.1077 -0.1045  0.0769
 2478CHOL    C128141  21.503  20.461   6.114  0.1366 -0.1666  0.1211
 2478CHOL    C228142  21.782  20.408   5.779  0.0101 -0.1219  0.2810
 2479CHOL   ROH28143  13.307  25.509   4.492  0.2010 -0.3034  0.0767
 2479CHOL    R128144  13.401  25.715   4.860  0.0770 -0.0843 -0.0119
 2479CHOL    R228145  13.132  25.504   4.794  0.1032 -0.1293  0.0247
 2479CHOL    R328146  13.294  25.721   5.274 -0.0571  0.1571 -0.0482
 2479CHOL    R428147  13.091  25.467   5.099  0.0053  0.0493  0.0345
 2479CHOL    R528148  13.334  25.360   4.841  0.0918 -0.0981  0.1750
 2479CHOL    R628149  13.278  25.445   5.297 -0.0581  0.1698  0.1089
 2479CHOL    C128150  13.036  25.555   5.536 -0.1385  0.3059 -0.0331
 2479CHOL    C228151  13.413  25.509   5.723 -0.1367 -0.0506 -0.1771
 2480CHOL   ROH28152   3.679  23.812   7.436 -0.1317 -0.1500 -0.0628
 2480CHOL    R128153   3.429  23.886   7.092 -0.0584  0.1623 -0.0514
 2480CHOL    R228154   3.773  23.837   7.101 -0.0876 -0.0494 -0.0431
 2480CHOL    R328155   3.440  23.871   6.664 -0.0307  0.3570 -0.0583
 2480CHOL    R428156   3.768  23.773   6.798 -0.1005  0.0960 -0.0745
 2480CHOL    R528157   3.662  23.611   7.113 -0.2252  0.0104 -0.1594
 2480CHOL    R628158   3.582  23.634   6.653 -0.1720  0.2750 -0.1566
 2480CHOL    C128159   3.690  23.802   6.356 -0.0455  0.3509 -0.0690
 2480CHOL    C228160   3.683  24.018   5.982 -0.1021 -0.1437  0.2174
 2481CHOL   ROH28161   5.216  23.514   4.329 -0.1530  0.0550 -0.0282
 2481CHOL    R128162   5.116  23.576   4.744 -0.0331  0.0468  0.0023
 2481CHOL    R228163   5.392  23.411   4.611 -0.1074 -0.0118 -0.0808
 2481CHOL    R328164   5.288  23.546   5.134  0.0584 -0.0273 -0.0431
 2481CHOL    R428165   5.536  23.441   4.884 -0.0309 -0.0695 -0.1144
 2481CHOL    R528166   5.437  23.659   4.602 -0.0478 -0.0221 -0.0721
 2481CHOL    R628167   5.533  23.650   5.059  0.0656 -0.0825 -0.0966
 2481CHOL    C128168   5.623  23.428   5.325  0.0773 -0.1263 -0.1370
 2481CHOL    C228169   5.776  23.435   5.761 -0.2278 -0.0008 -0.0979
 2482CHOL   ROH28170   7.424  20.108   7.332 -0.0885  0.2151 -0.0211
 2482CHOL    R128171   7.175  20.087   6.980 -0.0281 -0.0312 -0.0508
 2482CHOL    R228172   7.495  20.220   7.009 -0.0850  0.1090 -0.0575
 2482CHOL    R328173   7.196  20.133   6.555  0.0165 -0.2005 -0.0678
 2482CHOL    R428174   7.527  20.200   6.702 -0.0314 -0.0072 -0.0452
 2482CHOL    R528175   7.516  19.969   6.991  0.0180  0.1086  0.0504
 2482CHOL    R628176   7.441  20.006   6.531  0.0715 -0.1141  0.0226
 2482CHOL    C128177   7.450  20.241   6.261  0.0180 -0.2226 -0.0746
 2482CHOL    C228178   7.373  20.222   5.865  0.1097 -0.1262 -0.1133
 2483CHOL   ROH28179  12.152  26.769   4.303  0.0852 -0.1652  0.1442
 2483CHOL    R128180  12.219  26.872   4.717  0.0130 -0.2046  0.1659
 2483CHOL    R228181  11.930  26.916   4.529  0.0816 -0.0821  0.0873
 2483CHOL    R328182  12.006  26.986   5.070 -0.0385 -0.1291  0.1106
 2483CHOL    R428183  11.768  26.944   4.792  0.0203 -0.0251  0.0437
 2483CHOL    R528184  11.939  26.675   4.604 -0.0360 -0.0884  0.0830
 2483CHOL    R628185  11.797  26.810   5.028 -0.0987 -0.0439  0.0480
 2483CHOL    C128186  11.636  27.079   5.199 -0.0377  0.0163  0.0113
 2483CHOL    C228187  11.571  27.239   5.604 -0.0077  0.1477 -0.0667
 2484CHOL   ROH28188  12.654  11.444   7.335  0.1122 -0.2122  0.0460
 2484CHOL    R128189  12.907  11.426   6.986  0.0506  0.0693 -0.0160
 2484CHOL    R228190  12.576  11.324   7.017  0.1636 -0.2883  0.0618
 2484CHOL    R328191  12.886  11.361   6.564  0.0179  0.0582 -0.0127
 2484CHOL    R428192  12.549  11.331   6.709  0.0810 -0.3082  0.0685
 2484CHOL    R528193  12.578  11.574   6.986 -0.1126 -0.2823  0.0675
 2484CHOL    R628194  12.654  11.508   6.530 -0.1513 -0.1878  0.0472
 2484CHOL    C128195  12.626  11.263   6.271  0.0494 -0.2128  0.0477
 2484CHOL    C228196  12.684  11.183   5.872  0.0968  0.2559  0.0600
 2485CHOL   ROH28197  24.670  22.449   7.234 -0.1048 -0.2287 -0.0823
 2485CHOL    R128198  24.950  22.306   6.939 -0.0715 -0.1632 -0.0826
 2485CHOL    R228199  24.638  22.451   6.887 -0.0445 -0.1066 -0.0873
 2485CHOL    R328200  25.027  22.323   6.519  0.0031 -0.0295 -0.0642
 2485CHOL    R428201  24.720  22.511   6.594  0.0134 -0.0169 -0.0532
 2485CHOL    R528202  24.804  22.636   6.932 -0.0294 -0.1422  0.0044
 2485CHOL    R628203  24.961  22.590   6.494  0.0406 -0.0127  0.0154
 2485CHOL    C128204  24.871  22.461   6.174  0.0797  0.1075 -0.0449
 2485CHOL    C228205  25.014  22.351   5.769  0.1533  0.0352  0.2197
 2486CHOL   ROH28206  26.320  20.567   4.580  0.1574  0.0044  0.1715
 2486CHOL    R128207  25.948  20.597   4.796 -0.0100 -0.1123 -0.0963
 2486CHOL    R228208  26.133  20.853   4.650  0.0904 -0.0361  0.1592
 2486CHOL    R328209  25.630  20.872   4.872 -0.0824 -0.1627 -0.2126
 2486CHOL    R428210  25.881  21.034   4.658  0.0750 -0.0523  0.0500
 2486CHOL    R528211  26.000  20.739   4.468  0.2331  0.0390  0.0054
 2486CHOL    R628212  25.620  20.968   4.613  0.1102 -0.0457 -0.1784
 2486CHOL    C128213  25.517  21.253   4.803 -0.0477 -0.1365 -0.1257
 2486CHOL    C228214  25.126  21.486   4.826 -0.0197  0.2309  0.2404
 2487CHOL   ROH28215  11.637  10.248   4.658 -0.0121 -0.0221  0.0618
 2487CHOL    R128216  11.679  10.669   4.574 -0.0460 -0.0292  0.0086
 2487CHOL    R228217  11.737  10.502   4.874 -0.0394  0.0144  0.0315
 2487CHOL    R328218  11.845  11.025   4.741 -0.0808  0.0067 -0.0330
 2487CHOL    R428219  11.904  10.744   4.971 -0.0626  0.0413  0.0047
 2487CHOL    R528220  11.938  10.469   4.726 -0.0327  0.0126  0.0410
 2487CHOL    R628221  12.077  10.903   4.831 -0.0726  0.0381 -0.0113
 2487CHOL    C128222  12.031  11.163   5.072 -0.1010  0.0651 -0.0460
 2487CHOL    C228223  12.308  11.508   5.020 -0.0515  0.0306 -0.0932
 2488CHOL   ROH28224  12.509  10.438   6.905 -0.1826  0.0277  0.0793
 2488CHOL    R128225  12.729  10.518   6.543 -0.0262  0.0790  0.1850
 2488CHOL    R228226  12.560  10.228   6.632 -0.0836  0.0743  0.0615
 2488CHOL    R328227  12.791  10.361   6.150  0.1263  0.1469  0.1811
 2488CHOL    R428228  12.559  10.142   6.334  0.0343  0.1289  0.0447
 2488CHOL    R528229  12.390  10.394   6.546 -0.0368  0.1015  0.0212
 2488CHOL    R628230  12.525  10.295   6.110  0.1380  0.1724  0.0584
 2488CHOL    C128231  12.695  10.047   5.916  0.2016  0.1963  0.0830
 2488CHOL    C228232  12.715  10.032   5.476 -0.0080 -0.1369  0.1213
 2489CHOL   ROH28233   0.189  23.416   5.245  0.0275 -0.1193  0.0882
 2489CHOL    R128234  -0.218  23.284   5.191 -0.0511  0.1616 -0.0248
 2489CHOL    R228235   0.036  23.301   4.954  0.0648 -0.1316  0.0734
 2489CHOL    R328236  -0.466  23.078   4.910 -0.0865  0.2237 -0.0391
 2489CHOL    R428237  -0.125  23.106   4.774 -0.0054 -0.0909  0.0914
 2489CHOL    R528238   0.070  23.091   5.089 -0.1495 -0.0998  0.1809
 2489CHOL    R628239  -0.275  22.889   4.845 -0.1987  0.0508  0.1245
 2489CHOL    C128240  -0.459  22.918   4.540 -0.0487  0.0566  0.0332
 2489CHOL    C228241  -0.863  23.019   4.390 -0.2509  0.2529  0.2305
 2490CHOL   ROH28242   9.898  11.720   6.987  0.0997 -0.0758 -0.1234
 2490CHOL    R128243   9.837  11.920   6.610  0.2181  0.1452 -0.0268
 2490CHOL    R228244  10.110  11.730   6.711  0.1004 -0.0790 -0.1229
 2490CHOL    R328245   9.997  11.938   6.214  0.2201  0.2334 -0.0223
 2490CHOL    R428246  10.193  11.699   6.414  0.0736  0.0103 -0.1400
 2490CHOL    R528247   9.928  11.572   6.638 -0.0032  0.0714 -0.1956
 2490CHOL    R628248  10.036  11.665   6.193  0.0453  0.2162 -0.1542
 2490CHOL    C128249  10.298  11.795   5.987  0.1244  0.1483 -0.0971
 2490CHOL    C228250  10.498  11.923   5.606  0.1382 -0.3380 -0.0576
 2491CHOL   ROH28251  12.141   8.083   4.106  0.1964 -0.1051  0.1346
 2491CHOL    R128252  12.069   8.135   4.528  0.0414 -0.0271  0.0991
 2491CHOL    R228253  11.836   8.085   4.274  0.1379 -0.1322  0.0300
 2491CHOL    R328254  11.759   8.092   4.820 -0.0494 -0.0280  0.0032
 2491CHOL    R428255  11.627   8.001   4.488  0.0827 -0.1289 -0.0222
 2491CHOL    R528256  11.934   7.861   4.335  0.1649 -0.0982  0.1130
 2491CHOL    R628257  11.663   7.854   4.716  0.0363 -0.0714  0.0223
 2491CHOL    C128258  11.368   8.001   4.855 -0.0426 -0.1028 -0.1104
 2491CHOL    C228259  11.118   8.101   5.197  0.0832 -0.1090 -0.1814
 2492CHOL   ROH28260   6.218  19.463   7.167  0.0937  0.1346  0.0473
 2492CHOL    R128261   6.568  19.473   6.916  0.0310 -0.0872 -0.0517
 2492CHOL    R228262   6.234  19.474   6.819  0.0014  0.1758  0.0440
 2492CHOL    R328263   6.684  19.548   6.511 -0.0298 -0.1108 -0.0736
 2492CHOL    R428264   6.319  19.581   6.541  0.0013  0.1557  0.0363
 2492CHOL    R528265   6.296  19.709   6.888  0.1956  0.1207  0.0632
 2492CHOL    R628266   6.513  19.763   6.477  0.1185  0.0225  0.0091
 2492CHOL    C128267   6.530  19.627   6.147 -0.0772  0.0595 -0.0173
 2492CHOL    C228268   6.696  19.649   5.758 -0.1364 -0.0691  0.2665
 2493CHOL   ROH28269  10.307   2.276   3.899 -0.2321 -0.0432 -0.1574
 2493CHOL    R128270  10.211   2.465   4.275 -0.2245  0.0778 -0.2156
 2493CHOL    R228271  10.063   2.185   4.131 -0.1118 -0.0738 -0.0416
 2493CHOL    R328272   9.990   2.395   4.635 -0.0777  0.1191 -0.1163
 2493CHOL    R428273   9.948   2.107   4.408  0.0149 -0.0104  0.0294
 2493CHOL    R528274  10.278   2.111   4.241 -0.0369  0.0978 -0.0711
 2493CHOL    R628275  10.063   2.129   4.655  0.0778  0.1686 -0.0139
 2493CHOL    C128276   9.738   2.129   4.805  0.1214  0.0551  0.0825
 2493CHOL    C228277   9.423   2.283   5.076 -0.0712  0.1263  0.0434
 2494CHOL   ROH28278  18.583   0.433   3.909 -0.2379  0.0378 -0.1782
 2494CHOL    R128279  18.687   0.663   4.259 -0.0624 -0.0666 -0.1601
 2494CHOL    R228280  18.466   0.395   4.236 -0.1772  0.0267 -0.1577
 2494CHOL    R328281  18.650   0.654   4.685  0.0336 -0.1282 -0.1528
 2494CHOL    R428282  18.486   0.357   4.543 -0.1207 -0.0364 -0.1688
 2494CHOL    R528283  18.701   0.303   4.246 -0.2118 -0.0709 -0.2289
 2494CHOL    R628284  18.702   0.384   4.707 -0.0712 -0.1540 -0.2141
 2494CHOL    C128285  18.484   0.441   4.984  0.0164 -0.1148 -0.1527
 2494CHOL    C228286  18.530   0.661   5.365 -0.1593 -0.1080 -0.0691
 2495CHOL   ROH28287   9.909  22.339   7.057 -0.0871 -0.1176  0.1795
 2495CHOL    R128288   9.768  22.188   6.679 -0.1085 -0.0673  0.1672
 2495CHOL    R228289   9.813  22.520   6.775 -0.0506 -0.0817  0.1900
 2495CHOL    R328290   9.693  22.316   6.278 -0.0796 -0.0271  0.1746
 2495CHOL    R428291   9.813  22.602   6.476 -0.0313 -0.0617  0.1954
 2495CHOL    R528292  10.038  22.426   6.711 -0.0663 -0.1178  0.1871
 2495CHOL    R628293   9.920  22.473   6.261 -0.0511 -0.0669  0.1884
 2495CHOL    C128294   9.693  22.645   6.045 -0.0171 -0.0116  0.1964
 2495CHOL    C228295   9.761  22.614   5.592 -0.1288 -0.1365 -0.0602
 2496CHOL   ROH28296  24.444  12.042   4.627  0.0352 -0.1344  0.0235
 2496CHOL    R128297  24.270  12.092   5.018 -0.0258 -0.0641 -0.0124
 2496CHOL    R228298  24.592  12.173   4.914  0.0089 -0.1367  0.0379
 2496CHOL    R328299  24.342  12.288   5.391 -0.0546 -0.0437 -0.0175
 2496CHOL    R428300  24.620  12.358   5.161  0.0009 -0.1195  0.0259
 2496CHOL    R528301  24.437  12.357   4.839  0.0586 -0.1132 -0.0070
 2496CHOL    R628302  24.435  12.522   5.277  0.0118 -0.0724 -0.0225
 2496CHOL    C128303  24.617  12.510   5.584 -0.0456 -0.0799  0.0115
 2496CHOL    C228304  24.595  12.634   6.019 -0.2908  0.2547 -0.2703
 2497CHOL   ROH28305   5.829  22.200   4.124  0.1709 -0.0671 -0.0098
 2497CHOL    R128306   5.640  22.129   4.505  0.1847 -0.0444  0.0014
 2497CHOL    R228307   5.956  22.261   4.444  0.1748 -0.0298 -0.0184
 2497CHOL    R328308   5.682  22.223   4.920  0.1889 -0.0040 -0.0082
 2497CHOL    R428309   5.959  22.376   4.731  0.1746 -0.0035 -0.0289
 2497CHOL    R528310   5.786  22.445   4.412  0.1623 -0.0436 -0.0310
 2497CHOL    R628311   5.756  22.486   4.876  0.1711 -0.0032 -0.0340
 2497CHOL    C128312   5.930  22.408   5.179  0.1835  0.0354 -0.0311
 2497CHOL    C228313   6.021  22.463   5.616 -0.1491 -0.2520 -0.0605
 2498CHOL   ROH28314  12.263  19.130   3.904  0.2462 -0.2025  0.1454
 2498CHOL    R128315  12.370  19.402   4.222  0.2396 -0.2783  0.2131
 2498CHOL    R228316  12.069  19.233   4.175  0.1470 -0.0679  0.0253
 2498CHOL    R328317  12.236  19.532   4.607  0.0889 -0.1866  0.1307
 2498CHOL    R428318  12.000  19.282   4.473 -0.0049 -0.0212 -0.0170
 2498CHOL    R528319  12.234  19.072   4.279 -0.0288 -0.1853  0.1290
 2498CHOL    R628320  12.163  19.279   4.692 -0.1429 -0.1376  0.0860
 2498CHOL    C128321  11.932  19.487   4.868 -0.1085  0.0247 -0.0584
 2498CHOL    C228322  11.952  19.417   5.278 -0.2370  0.0191 -0.1115
 2499CHOL   ROH28323  20.808   6.004   6.855 -0.1918 -0.0847 -0.1153
 2499CHOL    R128324  20.735   6.104   6.442  0.0075  0.2790 -0.0671
 2499CHOL    R228325  21.038   6.030   6.595 -0.1077 -0.1954 -0.0526
 2499CHOL    R328326  20.927   6.097   6.060  0.0746  0.2945 -0.0336
 2499CHOL    R428327  21.160   5.972   6.316 -0.1234 -0.1625 -0.0663
 2499CHOL    R528328  20.920   5.812   6.547 -0.3679 -0.0231 -0.2194
 2499CHOL    R628329  21.047   5.851   6.099 -0.2334  0.1168 -0.1699
 2499CHOL    C128330  21.281   6.017   5.885  0.0138 -0.0264 -0.0147
 2499CHOL    C228331  21.349   6.073   5.455  0.2864  0.0673  0.1783
 2500CHOL   ROH28332   1.860  23.071   5.145 -0.3386 -0.1327  0.4134
 2500CHOL    R128333   1.795  23.496   5.111  0.0534 -0.1035 -0.0875
 2500CHOL    R228334   1.977  23.325   5.353 -0.2708 -0.0113  0.2295
 2500CHOL    R328335   1.939  23.868   5.266  0.2617 -0.0591 -0.3779
 2500CHOL    R428336   2.120  23.590   5.427 -0.0941 -0.0548  0.0511
 2500CHOL    R528337   2.121  23.347   5.148 -0.0987 -0.3550  0.3075
 2500CHOL    R628338   2.205  23.792   5.263  0.2019 -0.2978 -0.1057
 2500CHOL    C128339   2.193  24.019   5.540  0.1940  0.0074 -0.3513
 2500CHOL    C228340   2.203  24.446   5.572  0.3757 -0.0565 -0.2713
 2501CHOL   ROH28341   4.491  17.681   7.158 -0.0519 -0.0661  0.0027
 2501CHOL    R128342   4.195  17.807   6.871 -0.0337 -0.0110  0.0080
 2501CHOL    R228343   4.479  17.614   6.816 -0.0335 -0.0056 -0.0098
 2501CHOL    R328344   4.066  17.728   6.471 -0.0122  0.0616 -0.0134
 2501CHOL    R428345   4.357  17.516   6.549 -0.0198  0.0434 -0.0342
 2501CHOL    R528346   4.301  17.464   6.911 -0.0411 -0.0197 -0.0465
 2501CHOL    R628347   4.097  17.454   6.490 -0.0174  0.0578 -0.0600
 2501CHOL    C128348   4.163  17.513   6.144  0.0032  0.1179 -0.0460
 2501CHOL    C228349   4.219  17.719   5.781 -0.0935 -0.0606  0.4789
 2502CHOL   ROH28350  27.404  10.898   7.199 -0.3072  0.2370  0.1160
 2502CHOL    R128351  27.263  11.172   6.897 -0.1124  0.1436 -0.0627
 2502CHOL    R228352  27.520  10.938   6.873 -0.2510 -0.0297  0.1003
 2502CHOL    R328353  27.293  11.248   6.478 -0.0262 -0.1270 -0.1073
 2502CHOL    R428354  27.501  10.956   6.564 -0.2111 -0.2038  0.0868
 2502CHOL    R528355  27.301  10.817   6.843 -0.3230  0.0850  0.1544
 2502CHOL    R628356  27.280  10.981   6.405 -0.1820 -0.1645  0.0521
 2502CHOL    C128357  27.483  11.120   6.146 -0.0721 -0.4434 -0.0149
 2502CHOL    C228358  27.574  11.356   5.812  0.3055 -0.2890 -0.1079
 2503CHOL   ROH28359  13.395  16.483   4.304  0.0606 -0.0647  0.0034
 2503CHOL    R128360  13.486  16.388   4.715 -0.0246  0.0685  0.0540
 2503CHOL    R228361  13.212  16.286   4.526  0.1021 -0.1349 -0.0244
 2503CHOL    R328362  13.367  16.121   5.028  0.0275  0.0546  0.0621
 2503CHOL    R428363  13.161  16.058   4.730  0.1699 -0.1279  0.0006
 2503CHOL    R528364  13.407  16.139   4.465  0.2143 -0.0279  0.0719
 2503CHOL    R628365  13.341  15.901   4.862  0.2200  0.0064  0.0936
 2503CHOL    C128366  13.097  15.835   5.114  0.1707 -0.0948  0.0199
 2503CHOL    C228367  13.019  15.493   5.401  0.1193  0.0076 -0.0754
 2504CHOL   ROH28368   5.376   3.189   3.930  0.0623 -0.0367  0.0118
 2504CHOL    R128369   5.323   3.240   4.355  0.0344  0.0420 -0.0010
 2504CHOL    R228370   5.604   3.126   4.186  0.0346 -0.0195  0.0408
 2504CHOL    R328371   5.548   3.251   4.719  0.0068  0.0780  0.0150
 2504CHOL    R428372   5.775   3.187   4.437  0.0218  0.0034  0.0439
 2504CHOL    R528373   5.602   3.378   4.171  0.0649 -0.0216 -0.0024
 2504CHOL    R628374   5.757   3.396   4.612  0.0322  0.0354  0.0069
 2504CHOL    C128375   5.921   3.200   4.862 -0.0104  0.0590  0.0534
 2504CHOL    C228376   6.049   2.995   5.238 -0.3716 -0.1287 -0.0926
 2505CHOL   ROH28377  21.387  26.336   4.125  0.1361  0.2056 -0.0429
 2505CHOL    R128378  21.248  26.529   4.485 -0.0223  0.0844 -0.0377
 2505CHOL    R228379  21.421  26.229   4.455  0.1200  0.1672 -0.0536
 2505CHOL    R328380  21.294  26.513   4.910 -0.0978  0.0362 -0.0313
 2505CHOL    R428381  21.499  26.249   4.755  0.0525  0.1538 -0.0350
 2505CHOL    R528382  21.588  26.417   4.437  0.0385  0.2462  0.0097
 2505CHOL    R628383  21.567  26.469   4.901 -0.0756  0.1616  0.0145
 2505CHOL    C128384  21.472  26.298   5.201 -0.0569  0.0693 -0.0319
 2505CHOL    C228385  21.318  26.386   5.604  0.0377  0.1312  0.5082
 2506CHOL   ROH28386  21.754   5.146   4.072  0.1112  0.0425  0.0344
 2506CHOL    R128387  22.020   5.015   4.385  0.0626 -0.0669  0.0300
 2506CHOL    R228388  21.778   5.265   4.399  0.0925 -0.0400  0.0657
 2506CHOL    R328389  22.078   5.049   4.807  0.0238 -0.1768  0.0445
 2506CHOL    R428390  21.784   5.247   4.708  0.0587 -0.1159  0.0623
 2506CHOL    R528391  21.662   5.042   4.425  0.0620 -0.0320 -0.0003
 2506CHOL    R628392  21.809   5.028   4.869  0.0149 -0.1582  0.0117
 2506CHOL    C128393  21.930   5.236   5.133  0.0139 -0.2374  0.0750
 2506CHOL    C228394  22.126   5.085   5.493  0.0738  0.1751  0.0103
 2507CHOL   ROH28395   3.751  17.720   7.066  0.1918 -0.1656  0.1195
 2507CHOL    R128396   3.932  17.422   6.812  0.0119 -0.2492  0.0880
 2507CHOL    R228397   3.599  17.523   6.822  0.0742 -0.0386  0.0888
 2507CHOL    R328398   3.849  17.190   6.463 -0.1240 -0.1531  0.0553
 2507CHOL    R428399   3.557  17.399   6.541  0.0051  0.0235  0.0714
 2507CHOL    R528400   3.728  17.693   6.688  0.1874 -0.1023  0.1151
 2507CHOL    R628401   3.725  17.396   6.327  0.0114 -0.0560  0.0772
 2507CHOL    C128402   3.556  17.109   6.198 -0.1674  0.0669  0.0343
 2507CHOL    C228403   3.544  16.866   5.827 -0.1854 -0.0571  0.0023
 2508CHOL   ROH28404  25.626  11.204   7.408  0.2641 -0.0471  0.0860
 2508CHOL    R128405  25.726  10.852   7.180  0.0879 -0.0345 -0.0121
 2508CHOL    R228406  25.431  11.037   7.172  0.1367  0.0501  0.1213
 2508CHOL    R328407  25.591  10.626   6.843 -0.0903  0.0639 -0.0081
 2508CHOL    R428408  25.363  10.909   6.898  0.0076  0.1186  0.1209
 2508CHOL    R528409  25.603  11.158   7.032  0.1232  0.0273  0.0850
 2508CHOL    R628410  25.528  10.848   6.690 -0.0801  0.1094  0.0533
 2508CHOL    C128411  25.291  10.606   6.574 -0.1875  0.1969  0.0896
 2508CHOL    C228412  25.329  10.223   6.329 -0.2661 -0.2122  0.1155
 2509CHOL   ROH28413  15.190  18.471   3.808 -0.2086  0.0569  0.2363
 2509CHOL    R128414  15.050  18.376   4.204 -0.0924 -0.0800  0.2453
 2509CHOL    R228415  15.373  18.349   4.079 -0.0940  0.1299  0.1926
 2509CHOL    R328416  15.197  18.289   4.597  0.0194 -0.0446  0.2117
 2509CHOL    R428417  15.481  18.341   4.369 -0.0452  0.1561  0.1752
 2509CHOL    R528418  15.333  18.590   4.139 -0.2298  0.0987  0.2304
 2509CHOL    R628419  15.397  18.479   4.589 -0.0954  0.0772  0.2062
 2509CHOL    C128420  15.540  18.229   4.800  0.0873  0.1334  0.1518
 2509CHOL    C228421  15.589  17.940   5.106  0.1521  0.0736 -0.3490
 2510CHOL   ROH28422  13.827  13.344   4.022 -0.0890  0.0590  0.0450
 2510CHOL    R128423  13.641  13.282   4.407  0.0288  0.1983  0.1251
 2510CHOL    R228424  13.943  13.155   4.291 -0.1114 -0.0231 -0.0029
 2510CHOL    R328425  13.729  13.132   4.797  0.0865  0.1390  0.0895
 2510CHOL    R428426  14.027  13.096   4.583 -0.0282 -0.0798 -0.0375
 2510CHOL    R528427  13.983  13.392   4.365  0.0932 -0.0493 -0.0214
 2510CHOL    R628428  13.982  13.244   4.809  0.1746 -0.0434 -0.0191
 2510CHOL    C128429  14.021  12.950   5.008  0.0464 -0.0704 -0.0331
 2510CHOL    C228430  13.999  12.539   5.121 -0.1971 -0.0259 -0.0484
 2511CHOL   ROH28431   9.303  17.031   6.880 -0.2285  0.0096 -0.0173
 2511CHOL    R128432   9.415  16.871   6.495 -0.1277 -0.0343  0.0299
 2511CHOL    R228433   9.292  17.188   6.569 -0.1540 -0.0283 -0.0394
 2511CHOL    R328434   9.494  16.997   6.094 -0.0297 -0.0813  0.0341
 2511CHOL    R428435   9.400  17.290   6.297 -0.0878 -0.0587 -0.0246
 2511CHOL    R528436   9.538  17.186   6.624 -0.1677 -0.0159  0.0229
 2511CHOL    R628437   9.632  17.225   6.168 -0.0537 -0.0689  0.0416
 2511CHOL    C128438   9.486  17.323   5.857  0.0222 -0.1099 -0.0074
 2511CHOL    C228439   9.570  17.407   5.447 -0.0579 -0.1086 -0.2690
 2512CHOL   ROH28440  21.946   2.144   7.519 -0.0608 -0.1184  0.0246
 2512CHOL    R128441  21.846   2.021   7.118  0.1621 -0.0354 -0.0586
 2512CHOL    R228442  21.831   2.341   7.255 -0.0301 -0.0834  0.0372
 2512CHOL    R328443  21.764   2.185   6.731  0.2592  0.0519 -0.0427
 2512CHOL    R428444  21.827   2.459   6.969  0.0431  0.0050  0.0721
 2512CHOL    R528445  22.071   2.293   7.193  0.0173  0.0370  0.1241
 2512CHOL    R628446  21.962   2.377   6.746  0.1734  0.1315  0.1029
 2512CHOL    C128447  21.717   2.536   6.540  0.1940  0.0932  0.0484
 2512CHOL    C228448  21.538   2.530   6.133  0.2201  0.1289  0.0612
 2513CHOL   ROH28449  13.283  17.772   5.084 -0.2256  0.1389  0.1400
 2513CHOL    R128450  13.230  18.172   4.932 -0.1168  0.1249  0.0635
 2513CHOL    R228451  13.227  18.066   5.263 -0.0981  0.1962  0.0868
 2513CHOL    R328452  13.222  18.579   5.064  0.0405  0.1563 -0.0215
 2513CHOL    R428453  13.277  18.358   5.354  0.0143  0.1995  0.0167
 2513CHOL    R528454  13.468  18.086   5.190 -0.1029  0.1003  0.0427
 2513CHOL    R628455  13.434  18.550   5.240  0.0600  0.1231 -0.0503
 2513CHOL    C128456  13.238  18.803   5.399  0.1703  0.2228 -0.0716
 2513CHOL    C228457  13.128  19.226   5.499  0.2142 -0.0066  0.1160
 2514CHOL   ROH28458  14.188   0.737   7.523  0.0029 -0.0174  0.0574
 2514CHOL    R128459  14.035   1.015   7.230  0.0191 -0.0486  0.0193
 2514CHOL    R228460  14.342   0.851   7.231  0.0069 -0.0717  0.0382
 2514CHOL    R328461  14.114   1.157   6.835  0.0236 -0.1124 -0.0030
 2514CHOL    R428462  14.371   0.910   6.928  0.0064 -0.1182  0.0290
 2514CHOL    R528463  14.168   0.689   7.146 -0.0068 -0.0710  0.0646
 2514CHOL    R628464  14.180   0.908   6.733  0.0030 -0.1323  0.0324
 2514CHOL    C128465  14.382   1.126   6.534  0.0163 -0.1766 -0.0029
 2514CHOL    C228466  14.377   1.296   6.124  0.0792  0.0381  0.0798
 2515CHOL   ROH28467   9.439  17.765   4.047 -0.2090  0.1630 -0.0085
 2515CHOL    R128468   9.463  17.630   4.455 -0.1887  0.0749 -0.0387
 2515CHOL    R228469   9.442  17.956   4.338 -0.0950  0.1054  0.0286
 2515CHOL    R328470   9.412  17.771   4.856 -0.0741  0.0150 -0.0023
 2515CHOL    R428471   9.351  18.048   4.620 -0.0174  0.0824  0.0614
 2515CHOL    R528472   9.210  17.858   4.335 -0.1302  0.1863  0.0470
 2515CHOL    R628473   9.187  17.922   4.798 -0.0321  0.1045  0.0637
 2515CHOL    C128474   9.335  18.107   5.065  0.0763  0.0014  0.0760
 2515CHOL    C228475   9.097  18.073   5.430 -0.0189  0.1594 -0.0620
 2516CHOL   ROH28476  23.907  23.990   7.017  0.0483  0.1740  0.0795
 2516CHOL    R128477  23.552  23.974   6.772  0.0713  0.0049  0.0555
 2516CHOL    R228478  23.825  24.187   6.741  0.0195  0.0648  0.0090
 2516CHOL    R328479  23.398  24.119   6.400  0.0636 -0.1535 -0.0039
 2516CHOL    R428480  23.739  24.249   6.450  0.0268 -0.0507 -0.0179
 2516CHOL    R528481  23.887  23.966   6.638  0.0841  0.0470  0.0851
 2516CHOL    R628482  23.634  24.081   6.262  0.0844 -0.1380  0.0273
 2516CHOL    C128483  23.492  24.362   6.092  0.0260 -0.2285 -0.0747
 2516CHOL    C228484  23.149  24.519   5.867 -0.1265 -0.0965 -0.0069
 2517CHOL   ROH28485   4.148  15.422   6.906  0.0211  0.1369  0.0995
 2517CHOL    R128486   4.085  15.469   6.482 -0.0434  0.1572  0.1113
 2517CHOL    R228487   4.161  15.715   6.717  0.0797  0.1331  0.0974
 2517CHOL    R328488   4.139  15.755   6.168 -0.0103  0.1401  0.1014
 2517CHOL    R428489   4.251  15.901   6.486  0.0968  0.1042  0.0806
 2517CHOL    R528490   4.375  15.596   6.656  0.0306  0.0640  0.0571
 2517CHOL    R628491   4.387  15.840   6.257  0.0344  0.0606  0.0550
 2517CHOL    C128492   4.256  16.135   6.103  0.1000  0.1028  0.0798
 2517CHOL    C228493   4.081  16.308   5.727 -0.1806  0.3357 -0.2839
 2518CHOL   ROH28494   6.720   1.318   7.169  0.0828  0.0219 -0.0479
 2518CHOL    R128495   6.452   1.409   6.843  0.0185 -0.0415 -0.0130
 2518CHOL    R228496   6.749   1.228   6.833  0.0350 -0.0127 -0.0429
 2518CHOL    R328497   6.372   1.297   6.438 -0.0389 -0.0948  0.0129
 2518CHOL    R428498   6.662   1.106   6.562  0.0013 -0.0519 -0.0145
 2518CHOL    R528499   6.568   1.076   6.919  0.0648 -0.0214  0.0049
 2518CHOL    R628500   6.414   1.027   6.481 -0.0046 -0.0860  0.0363
 2518CHOL    C128501   6.514   1.066   6.140 -0.0662 -0.1140  0.0148
 2518CHOL    C228502   6.665   1.035   5.742  0.0674 -0.1145  0.1990
 2519CHOL   ROH28503  13.767  14.017   3.977 -0.1076  0.0386 -0.0266
 2519CHOL    R128504  13.806  13.704   4.271 -0.2618  0.1124  0.0740
 2519CHOL    R228505  13.957  14.017   4.270  0.0126 -0.0166 -0.1039
 2519CHOL    R328506  13.952  13.636   4.667 -0.1585  0.1339  0.0399
 2519CHOL    R428507  14.013  13.987   4.573  0.1097  0.0485 -0.1150
 2519CHOL    R528508  13.720  14.045   4.354  0.0684  0.2207 -0.0165
 2519CHOL    R628509  13.857  13.876   4.768  0.0905  0.2565 -0.0091
 2519CHOL    C128510  14.148  13.820   4.968  0.1256  0.0785 -0.1078
 2519CHOL    C228511  14.442  13.584   5.196 -0.0834 -0.0145 -0.3249
 2520CHOL   ROH28512  25.710  17.204   6.622  0.0114 -0.3463 -0.1514
 2520CHOL    R128513  25.726  17.601   6.454 -0.1809 -0.2640  0.0201
 2520CHOL    R228514  25.804  17.299   6.300  0.0598 -0.1526 -0.0816
 2520CHOL    R328515  25.763  17.801   6.077 -0.1804 -0.0830  0.1150
 2520CHOL    R428516  25.776  17.437   6.024  0.0654 -0.0546 -0.0338
 2520CHOL    R528517  25.553  17.325   6.298  0.0431 -0.3093 -0.1528
 2520CHOL    R628518  25.597  17.626   5.942 -0.0266 -0.1324 -0.0134
 2520CHOL    C128519  25.823  17.728   5.685 -0.0042  0.1175  0.1031
 2520CHOL    C228520  26.037  18.039   5.455 -0.1635  0.0528  0.1568
 2521CHOL   ROH28521   2.895  10.640   7.343 -0.0968 -0.1658 -0.0131
 2521CHOL    R128522   2.781  10.855   6.987  0.0858 -0.0993 -0.0322
 2521CHOL    R228523   2.906  10.531   7.012  0.0267 -0.1216 -0.0242
 2521CHOL    R328524   2.702  10.791   6.572  0.2515 -0.0298 -0.0756
 2521CHOL    R428525   2.797  10.471   6.728  0.1374 -0.0659 -0.0791
 2521CHOL    R528526   2.660  10.525   7.068  0.0016 -0.0926 -0.1290
 2521CHOL    R628527   2.564  10.554   6.611  0.1988 -0.0149 -0.1663
 2521CHOL    C128528   2.710  10.504   6.289  0.3279  0.0082 -0.1122
 2521CHOL    C228529   2.666  10.533   5.859 -0.2842 -0.2861 -0.1081
 2522CHOL   ROH28530   1.204   8.447   7.747 -0.2204  0.0988 -0.0801
 2522CHOL    R128531   1.061   8.473   7.342 -0.1112  0.0495 -0.1223
 2522CHOL    R228532   1.374   8.371   7.452 -0.1247  0.1093 -0.0280
 2522CHOL    R328533   1.163   8.350   6.945  0.0209  0.0422 -0.0866
 2522CHOL    R428534   1.423   8.235   7.178 -0.0248  0.1005 -0.0064
 2522CHOL    R528535   1.215   8.177   7.480 -0.0998  0.0840 -0.0609
 2522CHOL    R628536   1.247   8.097   7.020  0.0426  0.0611 -0.0474
 2522CHOL    C128537   1.453   8.165   6.736  0.1112  0.0784  0.0061
 2522CHOL    C228538   1.490   8.113   6.303  0.0975  0.1180 -0.0040
 2523CHOL   ROH28539  26.628  26.975   5.549  0.0189  0.0580  0.0777
 2523CHOL    R128540  26.328  26.828   5.822 -0.0567  0.1586  0.0497
 2523CHOL    R228541  26.673  26.844   5.869 -0.0507  0.0008  0.0644
 2523CHOL    R328542  26.280  26.716   6.232 -0.1214  0.1326  0.0350
 2523CHOL    R428543  26.629  26.816   6.174 -0.0741 -0.0152  0.0596
 2523CHOL    R528544  26.578  27.073   5.913  0.0491  0.0381  0.0873
 2523CHOL    R628545  26.433  26.924   6.331 -0.0326  0.0535  0.0647
 2523CHOL    C128546  26.488  26.667   6.574 -0.1552  0.0009  0.0371
 2523CHOL    C228547  26.315  26.566   6.918  0.0641 -0.2092 -0.2936
 2524CHOL   ROH28548  12.469  21.798   6.986  0.0644  0.3083 -0.1293
 2524CHOL    R128549  12.062  21.764   6.846  0.0699  0.0119 -0.0791
 2524CHOL    R228550  12.339  21.886   6.674 -0.0369  0.2047 -0.1171
 2524CHOL    R328551  11.833  21.782   6.485  0.0121 -0.1654 -0.0522
 2524CHOL    R428552  12.187  21.846   6.407 -0.0412  0.0857 -0.0973
 2524CHOL    R528553  12.347  21.634   6.665  0.1426  0.2087 -0.1085
 2524CHOL    R628554  12.018  21.644   6.333  0.0934 -0.0386 -0.0694
 2524CHOL    C128555  11.868  21.860   6.091 -0.0915 -0.1541 -0.0595
 2524CHOL    C228556  11.641  21.734   5.727  0.1696 -0.2791 -0.0435
 2525CHOL   ROH28557   0.495   9.219   4.793  0.1003  0.3721 -0.0469
 2525CHOL    R128558   0.471   8.994   5.161  0.1751  0.2363 -0.1242
 2525CHOL    R228559   0.583   9.320   5.115  0.0764  0.2868 -0.0131
 2525CHOL    R328560   0.492   9.048   5.584  0.1675  0.0949 -0.1055
 2525CHOL    R428561   0.545   9.372   5.418  0.0669  0.1696  0.0061
 2525CHOL    R528562   0.331   9.325   5.119  0.0748  0.2095 -0.0060
 2525CHOL    R628563   0.347   9.284   5.585  0.0964  0.0520 -0.0200
 2525CHOL    C128564   0.565   9.328   5.865  0.0889  0.0199 -0.0090
 2525CHOL    C228565   0.365   9.288   6.260  0.0507 -0.0480  0.1036
 2526CHOL   ROH28566  26.091  19.422   7.186 -0.1842 -0.0239  0.0417
 2526CHOL    R128567  25.778  19.549   6.917 -0.0849  0.1912  0.0249
 2526CHOL    R228568  26.114  19.495   6.846 -0.1248 -0.0846  0.0326
 2526CHOL    R328569  25.698  19.597   6.500 -0.0454  0.2026  0.0186
 2526CHOL    R428570  26.043  19.476   6.545 -0.1388 -0.0661  0.0347
 2526CHOL    R528571  25.999  19.271   6.850 -0.3031  0.0060  0.0603
 2526CHOL    R628572  25.826  19.362   6.425 -0.2298  0.0906  0.0483
 2526CHOL    C128573  25.876  19.570   6.139 -0.0633  0.0164  0.0224
 2526CHOL    C228574  25.582  19.338   5.926 -0.5797  0.1660  0.2351
 2527CHOL   ROH28575  16.336  20.089   7.443  0.1971 -0.2195 -0.0787
 2527CHOL    R128576  16.606  20.237   7.141  0.0879 -0.0586 -0.0986
 2527CHOL    R228577  16.310  20.060   7.097  0.0778 -0.0446 -0.0859
 2527CHOL    R328578  16.627  20.304   6.719 -0.0607  0.1560 -0.0736
 2527CHOL    R428579  16.300  20.156   6.802 -0.0276  0.1044 -0.0347
 2527CHOL    R528580  16.250  20.301   7.140  0.0851 -0.0675  0.0572
 2527CHOL    R628581  16.368  20.399   6.698 -0.0712  0.1597  0.0646
 2527CHOL    C128582  16.418  20.247   6.379 -0.1775  0.3226 -0.0315
 2527CHOL    C228583  16.693  20.142   6.046  0.2233 -0.2197 -0.2245
 2528CHOL   ROH28584   4.559  12.820   6.754  0.0384 -0.1040 -0.0711
 2528CHOL    R128585   4.324  13.026   6.457  0.0034 -0.0615 -0.0140
 2528CHOL    R228586   4.623  12.853   6.412 -0.0210 -0.0868 -0.0805
 2528CHOL    R328587   4.285  13.066   6.033 -0.0707 -0.0291 -0.0043
 2528CHOL    R428588   4.563  12.837   6.109 -0.0783 -0.0606 -0.0709
 2528CHOL    R528589   4.435  12.684   6.421 -0.0355 -0.0697 -0.0578
 2528CHOL    R628590   4.325  12.797   5.981 -0.1056 -0.0293 -0.0300
 2528CHOL    C128591   4.458  12.951   5.687 -0.1449 -0.0220 -0.0439
 2528CHOL    C228592   4.267  13.192   5.355 -0.2195  0.0637  0.2603
 2529CHOL   ROH28593  25.154  25.120   6.901 -0.0327  0.0341 -0.0480
 2529CHOL    R128594  25.149  24.830   6.581  0.0059 -0.0268  0.0066
 2529CHOL    R228595  25.263  25.159   6.572 -0.0897  0.0046 -0.0704
 2529CHOL    R328596  25.309  24.765   6.190 -0.0298 -0.0537 -0.0035
 2529CHOL    R428597  25.423  25.092   6.315 -0.1060  0.0027 -0.0802
 2529CHOL    R528598  25.443  25.017   6.677 -0.0341  0.0757 -0.0689
 2529CHOL    R628599  25.560  24.864   6.250 -0.0496  0.0300 -0.0568
 2529CHOL    C128600  25.528  24.945   5.903 -0.1212 -0.0436 -0.0676
 2529CHOL    C228601  25.634  24.787   5.544  0.0110  0.3588  0.0527
 2530CHOL   ROH28602   5.718  19.788   7.067  0.0717 -0.0834 -0.0279
 2530CHOL    R128603   5.883  19.679   6.684  0.1421  0.0085 -0.0242
 2530CHOL    R228604   5.667  19.941   6.759  0.0218 -0.0902 -0.0230
 2530CHOL    R328605   5.929  19.832   6.287  0.0977  0.0490 -0.0137
 2530CHOL    R428606   5.745  20.077   6.491 -0.0225 -0.0419 -0.0115
 2530CHOL    R528607   5.900  20.013   6.821 -0.0129  0.0100 -0.0059
 2530CHOL    R628608   5.988  20.089   6.368 -0.0204  0.0719  0.0031
 2530CHOL    C128609   5.826  20.145   6.054 -0.0272  0.0166 -0.0034
 2530CHOL    C228610   5.867  20.101   5.585 -0.1075  0.2532  0.0760
 2531CHOL   ROH28611   6.840  23.952   7.648 -0.3135  0.0793  0.0893
 2531CHOL    R128612   6.635  24.177   7.342 -0.1199  0.0492 -0.0645
 2531CHOL    R228613   6.858  23.912   7.302 -0.1350  0.0097  0.1053
 2531CHOL    R328614   6.546  24.163   6.924  0.1003 -0.0191 -0.1104
 2531CHOL    R428615   6.750  23.871   7.014  0.0118 -0.0309  0.0556
 2531CHOL    R528616   6.632  23.816   7.360 -0.1805  0.0530  0.0045
 2531CHOL    R628617   6.495  23.891   6.920  0.0640 -0.0127 -0.0844
 2531CHOL    C128618   6.622  23.949   6.591  0.2476 -0.0944 -0.0293
 2531CHOL    C228619   6.505  24.141   6.215  0.1499 -0.0720 -0.2177
 2532CHOL   ROH28620   9.028  16.581   3.837  0.3415 -0.0087 -0.0311
 2532CHOL    R128621   9.218  16.249   4.038 -0.0912 -0.2389  0.0113
 2532CHOL    R228622   9.104  16.548   4.176  0.3128 -0.0586 -0.0294
 2532CHOL    R328623   9.291  16.097   4.431 -0.2783 -0.2784  0.0316
 2532CHOL    R428624   9.106  16.414   4.456  0.1455 -0.0206 -0.0088
 2532CHOL    R528625   8.906  16.395   4.145  0.1026  0.2003  0.0033
 2532CHOL    R628626   9.039  16.159   4.527 -0.1951  0.0761  0.0336
 2532CHOL    C128627   9.241  16.188   4.820 -0.1401 -0.1487  0.0199
 2532CHOL    C228628   9.645  16.225   4.997 -0.3309  0.0593  0.3522
 2533CHOL   ROH28629  10.890  15.046   7.166  0.2515 -0.1204  0.0088
 2533CHOL    R128630  11.179  15.218   6.897  0.2072 -0.0802 -0.0129
 2533CHOL    R228631  10.903  15.021   6.819  0.2270 -0.1159  0.0076
 2533CHOL    R328632  11.240  15.294   6.480  0.1641 -0.0688 -0.0172
 2533CHOL    R428633  10.918  15.122   6.526  0.1904 -0.1117  0.0072
 2533CHOL    R528634  10.822  15.256   6.858  0.1991 -0.1269  0.0158
 2533CHOL    R628635  10.978  15.371   6.432  0.1501 -0.1029  0.0043
 2533CHOL    C128636  11.074  15.228   6.119  0.1439 -0.0878 -0.0045
 2533CHOL    C228637  11.078  15.394   5.711 -0.1280  0.1708 -0.0448
 2534CHOL   ROH28638  24.372  10.402   6.660 -0.0565  0.2699  0.0068
 2534CHOL    R128639  24.354  10.333   6.235  0.0346 -0.1227  0.0632
 2534CHOL    R228640  24.111  10.265   6.474 -0.0920  0.2725  0.0543
 2534CHOL    R328641  24.075  10.237   5.926  0.0679 -0.2236  0.0640
 2534CHOL    R428642  23.899  10.250   6.249 -0.0299  0.2056 -0.0002
 2534CHOL    R528643  24.099  10.511   6.419  0.0957  0.2316 -0.1844
 2534CHOL    R628644  23.875  10.402   6.023  0.1485  0.0101 -0.1549
 2534CHOL    C128645  23.688  10.140   5.867  0.0179 -0.0111  0.0344
 2534CHOL    C228646  23.482  10.201   5.481  0.3188  0.0283  0.1451
 2535CHOL   ROH28647   4.123   9.408   6.693 -0.0821 -0.2101  0.0990
 2535CHOL    R128648   3.783   9.446   6.430 -0.0386 -0.1065  0.0570
 2535CHOL    R228649   4.119   9.418   6.344 -0.0377 -0.2248  0.0979
 2535CHOL    R328650   3.675   9.405   6.018 -0.0041 -0.0889  0.0462
 2535CHOL    R428651   4.034   9.334   6.058 -0.0324 -0.2093  0.0918
 2535CHOL    R528652   4.032   9.187   6.398 -0.1227 -0.1930  0.0986
 2535CHOL    R628653   3.826   9.177   5.978 -0.0768 -0.1424  0.0747
 2535CHOL    C128654   3.834   9.331   5.656  0.0137 -0.1600  0.0684
 2535CHOL    C228655   3.581   9.500   5.338  0.1972 -0.0908  0.0530
 2536CHOL   ROH28656   6.383  16.969   3.686 -0.0179 -0.0666 -0.0015
 2536CHOL    R128657   6.292  17.217   4.027  0.1270 -0.0144 -0.0000
 2536CHOL    R228658   6.177  16.896   3.957 -0.0347  0.0395  0.0146
 2536CHOL    R328659   6.115  17.195   4.416  0.1432  0.0798  0.0129
 2536CHOL    R428660   6.100  16.864   4.256 -0.0295  0.0834  0.0208
 2536CHOL    R528661   6.410  16.877   4.054 -0.0367 -0.0719 -0.0015
 2536CHOL    R628662   6.230  16.951   4.479  0.0292  0.0246  0.0097
 2536CHOL    C128663   5.923  16.940   4.662  0.0359  0.1779  0.0317
 2536CHOL    C228664   5.865  17.072   5.076  0.0244 -0.2015  0.0006
 2537CHOL   ROH28665  18.456   0.538   7.237 -0.0669 -0.0906 -0.0270
 2537CHOL    R128666  18.803   0.709   7.046 -0.1188  0.0224 -0.0209
 2537CHOL    R228667  18.556   0.508   6.905 -0.0438 -0.0693 -0.0221
 2537CHOL    R328668  18.966   0.779   6.657 -0.1287  0.0635 -0.0176
 2537CHOL    R428669  18.644   0.605   6.624 -0.0670 -0.0502 -0.0227
 2537CHOL    R528670  18.467   0.743   6.918 -0.1263 -0.0996 -0.0350
 2537CHOL    R628671  18.725   0.853   6.544 -0.1502 -0.0250 -0.0297
 2537CHOL    C128672  18.897   0.706   6.267 -0.0887  0.0234 -0.0173
 2537CHOL    C228673  19.202   0.819   5.977  0.0681  0.0628 -0.2594
 2538CHOL   ROH28674  20.668  17.691   3.968 -0.0422 -0.1391 -0.0203
 2538CHOL    R128675  21.001  17.534   4.193 -0.0136 -0.1390 -0.0624
 2538CHOL    R228676  20.668  17.557   4.290  0.0188 -0.0322  0.0247
 2538CHOL    R328677  21.086  17.304   4.544  0.0341 -0.0418 -0.0098
 2538CHOL    R428678  20.721  17.347   4.511  0.0340  0.0291  0.0795
 2538CHOL    R528679  20.692  17.354   4.142 -0.0689 -0.0869  0.0849
 2538CHOL    R628680  20.879  17.124   4.504 -0.0181 -0.0090  0.1085
 2538CHOL    C128681  20.905  17.132   4.860  0.0845  0.1038  0.0993
 2538CHOL    C228682  21.089  17.180   5.210 -0.2778  0.0825 -0.0646
 2539CHOL   ROH28683   8.854   6.059   3.739  0.0039 -0.0081  0.0685
 2539CHOL    R128684   9.043   5.877   4.081 -0.1154 -0.0028  0.1377
 2539CHOL    R228685   8.927   6.203   4.048  0.0240  0.0381  0.0423
 2539CHOL    R328686   9.112   5.945   4.498 -0.1405  0.0712  0.1298
 2539CHOL    R428687   8.927   6.230   4.357 -0.0044  0.1142  0.0358
 2539CHOL    R528688   8.729   6.055   4.097 -0.0444  0.1322  0.0540
 2539CHOL    R628689   8.859   6.046   4.546 -0.1055  0.1886  0.0729
 2539CHOL    C128690   9.058   6.222   4.786 -0.0631  0.1654  0.0549
 2539CHOL    C228691   9.114   6.077   5.195  0.2711 -0.0503 -0.1302
 2540CHOL   ROH28692   0.847   8.792   4.760  0.2049  0.0849 -0.1343
 2540CHOL    R128693   0.947   9.173   4.935 -0.1314  0.1514 -0.0797
 2540CHOL    R228694   0.869   8.875   5.098  0.1602  0.0482 -0.1222
 2540CHOL    R328695   1.056   9.347   5.310 -0.2562  0.1903 -0.0610
 2540CHOL    R428696   1.000   8.986   5.356  0.0831  0.1266 -0.1164
 2540CHOL    R528697   1.110   8.863   5.024  0.1664  0.2847 -0.1485
 2540CHOL    R628698   1.224   9.140   5.384 -0.0546  0.3314 -0.1130
 2540CHOL    C128699   1.104   9.256   5.700 -0.1329  0.1666 -0.0811
 2540CHOL    C228700   1.314   9.519   5.981  0.1108 -0.1421  0.0148
 2541CHOL   ROH28701  22.517  19.225   6.322 -0.0845 -0.0905  0.0197
 2541CHOL    R128702  22.423  19.288   5.906  0.0422 -0.1527 -0.0191
 2541CHOL    R228703  22.530  19.523   6.140 -0.1022 -0.1028 -0.0017
 2541CHOL    R328704  22.466  19.580   5.596  0.0705 -0.1680 -0.0297
 2541CHOL    R428705  22.611  19.711   5.908 -0.0729 -0.1010  0.0100
 2541CHOL    R528706  22.732  19.395   6.058 -0.0389 -0.0552  0.0792
 2541CHOL    R628707  22.724  19.650   5.667  0.0274 -0.0917  0.0540
 2541CHOL    C128708  22.597  19.956   5.531 -0.0090 -0.1378 -0.0166
 2541CHOL    C228709  22.459  20.307   5.306 -0.2141  0.2659  0.1948
 2542CHOL   ROH28710  22.792   6.458   7.655 -0.0218 -0.0033  0.2086
 2542CHOL    R128711  22.611   6.079   7.558  0.0246 -0.0196  0.1851
 2542CHOL    R228712  22.596   6.377   7.379  0.0073 -0.0166  0.1916
 2542CHOL    R328713  22.420   5.876   7.233  0.0704 -0.0310  0.1654
 2542CHOL    R428714  22.509   6.218   7.128  0.0428 -0.0191  0.1809
 2542CHOL    R528715  22.817   6.267   7.328  0.0226  0.0076  0.2055
 2542CHOL    R628716  22.594   5.973   7.041  0.0750 -0.0082  0.1810
 2542CHOL    C128717  22.290   5.935   6.856  0.0928 -0.0349  0.1570
 2542CHOL    C228718  22.007   5.674   6.675  0.0484  0.1766  0.2585
 2543CHOL   ROH28719   0.079   8.185   7.496 -0.4700 -0.2793 -0.0886
 2543CHOL    R128720   0.405   8.135   7.219 -0.2620 -0.1023  0.1199
 2543CHOL    R228721   0.074   8.037   7.180 -0.2058 -0.2022 -0.1316
 2543CHOL    R328722   0.482   8.032   6.810  0.0510  0.0248  0.1435
 2543CHOL    R428723   0.119   8.016   6.874  0.0104 -0.1106 -0.1074
 2543CHOL    R528724   0.089   8.284   7.129 -0.2509 -0.1839 -0.0587
 2543CHOL    R628725   0.268   8.176   6.710  0.0713 -0.0203  0.0338
 2543CHOL    C128726   0.295   7.909   6.475  0.3197  0.0471 -0.0172
 2543CHOL    C228727   0.464   7.879   6.090  0.0172  0.1009 -0.0430
 2544CHOL   ROH28728  15.975  17.185   7.452 -0.1995 -0.3389  0.0813
 2544CHOL    R128729  15.752  17.168   7.083 -0.1680  0.0920  0.0373
 2544CHOL    R228730  16.083  17.265   7.130 -0.0683 -0.2807  0.1390
 2544CHOL    R328731  15.810  17.182   6.659 -0.0930  0.2563  0.0521
 2544CHOL    R428732  16.135  17.221   6.828 -0.0719 -0.1754  0.1226
 2544CHOL    R528733  16.075  17.013   7.128 -0.3346 -0.2750  0.0046
 2544CHOL    R628734  16.038  17.026   6.662 -0.2554  0.0113  0.0047
 2544CHOL    C128735  16.095  17.238   6.380  0.0095  0.1040  0.1247
 2544CHOL    C228736  16.246  17.281   5.967 -0.1182 -0.1021 -0.1117
 2545CHOL   ROH28737   7.826  17.622   7.280 -0.0613  0.0988 -0.0191
 2545CHOL    R128738   7.730  17.323   6.984  0.2623 -0.0350  0.0063
 2545CHOL    R228739   7.861  17.641   6.933 -0.1228  0.1247 -0.0240
 2545CHOL    R328740   7.792  17.232   6.571  0.3250  0.0193  0.0037
 2545CHOL    R428741   7.954  17.553   6.651 -0.0479  0.2218 -0.0302
 2545CHOL    R528742   8.050  17.489   7.003  0.0703  0.3520 -0.0377
 2545CHOL    R628743   8.056  17.314   6.570  0.2315  0.3375 -0.0299
 2545CHOL    C128744   7.954  17.385   6.235  0.1069  0.1998 -0.0219
 2545CHOL    C228745   7.991  17.288   5.817 -0.2900  0.3148  0.0571
 2546CHOL   ROH28746  13.382  15.658   7.396 -0.3012  0.1725 -0.0070
 2546CHOL    R128747  13.702  15.743   7.119 -0.2195 -0.0409  0.0198
 2546CHOL    R228748  13.372  15.658   7.047 -0.2511  0.1028 -0.0086
 2546CHOL    R328749  13.769  15.827   6.705 -0.1195 -0.1615  0.0111
 2546CHOL    R428750  13.409  15.771   6.761 -0.1554  0.0240 -0.0278
 2546CHOL    R528751  13.378  15.903   7.105 -0.1412  0.1129 -0.0605
 2546CHOL    R628752  13.548  15.991   6.678 -0.0369 -0.0598 -0.0556
 2546CHOL    C128753  13.576  15.850   6.351 -0.0578 -0.1439 -0.0215
 2546CHOL    C228754  13.796  15.796   5.980 -0.1797 -0.1760  0.0432
 2547CHOL   ROH28755   8.315  22.183   4.091  0.2406 -0.2827  0.0549
 2547CHOL    R128756   8.483  22.206   4.487  0.1281 -0.1162  0.0940
 2547CHOL    R228757   8.171  22.083   4.393  0.1378 -0.1167  0.0623
 2547CHOL    R328758   8.418  22.061   4.884 -0.0088  0.0839  0.1463
 2547CHOL    R428759   8.153  21.934   4.663  0.0372  0.0161  0.1300
 2547CHOL    R528760   8.343  21.904   4.347  0.1256 -0.1640  0.1986
 2547CHOL    R628761   8.348  21.806   4.804 -0.0222  0.0549  0.2491
 2547CHOL    C128762   8.157  21.845   5.104 -0.1043  0.2272  0.1753
 2547CHOL    C228763   8.187  21.725   5.528  0.1038  0.1038 -0.0144
 2548CHOL   ROH28764  10.178  10.042   7.461 -0.0000 -0.1822  0.0025
 2548CHOL    R128765  10.183  10.303   7.117 -0.0567 -0.1890 -0.0037
 2548CHOL    R228766  10.314   9.982   7.145  0.0897 -0.1272  0.0305
 2548CHOL    R328767  10.262  10.297   6.697  0.0276 -0.1641  0.0116
 2548CHOL    R428768  10.319   9.961   6.836  0.1595 -0.1341  0.0318
 2548CHOL    R528769  10.066   9.962   7.106  0.1061 -0.2456 -0.0171
 2548CHOL    R628770  10.138  10.053   6.654  0.1506 -0.2247 -0.0059
 2548CHOL    C128771  10.392  10.054   6.403  0.1997 -0.1118  0.0433
 2548CHOL    C228772  10.316  10.097   5.973 -0.0381 -0.1928  0.4251
 2549CHOL   ROH28773  17.086   0.287   4.266 -0.1462  0.0139 -0.1317
 2549CHOL    R128774  17.237  -0.102   4.377 -0.0904  0.0491 -0.0833
 2549CHOL    R228775  17.291   0.204   4.535 -0.0874  0.0856 -0.1540
 2549CHOL    R328776  17.428  -0.303   4.703 -0.0104  0.1307 -0.0795
 2549CHOL    R428777  17.378   0.051   4.791 -0.0253  0.1438 -0.1401
 2549CHOL    R528778  17.064   0.119   4.606 -0.0666  0.0791 -0.0940
 2549CHOL    R628779  17.276  -0.179   4.898  0.0157  0.1558 -0.0753
 2549CHOL    C128780  17.587  -0.236   5.067  0.0529  0.2169 -0.1227
 2549CHOL    C228781  17.671  -0.535   5.339  0.0104 -0.2208 -0.1275
 2550CHOL   ROH28782  23.844  17.409   6.991 -0.2298  0.0989 -0.0062
 2550CHOL    R128783  24.051  17.767   6.867  0.1103 -0.0830  0.0263
 2550CHOL    R228784  23.939  17.503   6.669 -0.2724  0.1060 -0.0168
 2550CHOL    R328785  24.149  17.989   6.515  0.1947 -0.0662  0.0599
 2550CHOL    R428786  23.959  17.687   6.420 -0.1838  0.1717  0.0384
 2550CHOL    R528787  23.742  17.654   6.718 -0.0870  0.3086  0.1255
 2550CHOL    R628788  23.901  17.953   6.396  0.0976  0.2480  0.1588
 2550CHOL    C128789  24.118  17.974   6.113 -0.0064  0.1056  0.0672
 2550CHOL    C228790  24.319  18.245   5.857  0.0801  0.2379 -0.1691
 2551CHOL   ROH28791   1.498  16.751   4.189 -0.0714  0.1150 -0.0117
 2551CHOL    R128792   1.694  16.865   4.556 -0.0408  0.0334 -0.0025
 2551CHOL    R228793   1.492  16.588   4.497 -0.0323  0.0377 -0.0519
 2551CHOL    R328794   1.794  16.709   4.941  0.0056 -0.0579 -0.0514
 2551CHOL    R428795   1.610  16.454   4.750 -0.0002 -0.0197 -0.0970
 2551CHOL    R528796   1.723  16.537   4.408 -0.0385  0.0718 -0.0876
 2551CHOL    R628797   1.865  16.459   4.846  0.0091 -0.0307 -0.1211
 2551CHOL    C128798   1.743  16.383   5.173  0.0456 -0.1188 -0.1276
 2551CHOL    C228799   1.880  16.256   5.576  0.0151 -0.1516 -0.1622
 2552CHOL   ROH28800  26.405  25.385   7.185 -0.0038 -0.1392 -0.0075
 2552CHOL    R128801  26.213  25.563   6.843  0.0406 -0.0442  0.0166
 2552CHOL    R228802  26.550  25.575   6.931  0.0336 -0.0901  0.0500
 2552CHOL    R328803  26.307  25.746   6.467  0.0884  0.0368  0.0676
 2552CHOL    R428804  26.619  25.655   6.639  0.0661 -0.0269  0.0749
 2552CHOL    R528805  26.505  25.352   6.820  0.0271 -0.0609 -0.0063
 2552CHOL    R628806  26.509  25.568   6.405  0.0807  0.0361  0.0443
 2552CHOL    C128807  26.619  25.867   6.243  0.1178  0.0662  0.1244
 2552CHOL    C228808  26.615  25.850   5.820  0.4061  0.4160 -0.0705
 2553CHOL   ROH28809  21.822  25.159   7.170  0.1404 -0.0609  0.0097
 2553CHOL    R128810  21.992  24.898   6.871  0.1537  0.0554 -0.0854
 2553CHOL    R228811  21.723  25.117   6.838  0.0102 -0.0966  0.0525
 2553CHOL    R328812  21.984  24.827   6.449 -0.0010  0.0782 -0.0870
 2553CHOL    R428813  21.756  25.105   6.530 -0.1255 -0.0573  0.0356
 2553CHOL    R528814  21.936  25.251   6.819 -0.0751  0.0280 -0.0385
 2553CHOL    R628815  21.985  25.095   6.381 -0.1878  0.0845 -0.0715
 2553CHOL    C128816  21.801  24.949   6.111 -0.2296 -0.0046  0.0045
 2553CHOL    C228817  22.019  24.885   5.731  0.1084  0.1269 -0.2369
 2554CHOL   ROH28818  16.970  26.299   7.184 -0.1458  0.1662  0.0551
 2554CHOL    R128819  17.211  26.149   6.859 -0.0121  0.1495  0.1609
 2554CHOL    R228820  16.977  26.407   6.852 -0.0560  0.1072  0.0374
 2554CHOL    R328821  17.331  26.250   6.461  0.1009  0.0984  0.1817
 2554CHOL    R428822  17.103  26.510   6.589  0.0125  0.0818  0.0601
 2554CHOL    R528823  17.191  26.499   6.948 -0.1037  0.1625  0.0916
 2554CHOL    R628824  17.366  26.519   6.515  0.0354  0.1147  0.1447
 2554CHOL    C128825  17.268  26.524   6.171  0.1475  0.0350  0.1113
 2554CHOL    C228826  17.489  26.476   5.800  0.1701 -0.1093  0.1765
 2555CHOL   ROH28827   8.767  12.687   6.725 -0.0254 -0.1105 -0.0941
 2555CHOL    R128828   8.877  12.979   6.427  0.1097 -0.0859 -0.0212
 2555CHOL    R228829   8.844  12.635   6.388 -0.0860 -0.0581 -0.1162
 2555CHOL    R328830   8.923  13.021   6.003  0.0929  0.0086 -0.0141
 2555CHOL    R428831   8.823  12.675   6.082 -0.0927  0.0408 -0.1032
 2555CHOL    R528832   8.613  12.737   6.381 -0.0308  0.0732 -0.0663
 2555CHOL    R628833   8.697  12.873   5.941  0.0038  0.1516 -0.0356
 2555CHOL    C128834   8.910  12.807   5.661 -0.0583  0.1121 -0.0738
 2555CHOL    C228835   9.227  12.976   5.430 -0.2239  0.1927 -0.1826
 2556CHOL   ROH28836  14.965  20.607   3.739  0.0288 -0.1266 -0.0572
 2556CHOL    R128837  14.779  20.848   4.045 -0.0577 -0.0786 -0.1469
 2556CHOL    R228838  14.797  20.501   4.026  0.0364 -0.0804 -0.0357
 2556CHOL    R328839  14.618  20.817   4.440 -0.0777  0.0035 -0.1485
 2556CHOL    R428840  14.733  20.485   4.329  0.0189 -0.0016 -0.0351
 2556CHOL    R528841  15.017  20.586   4.115  0.0075  0.0067 -0.0463
 2556CHOL    R628842  14.816  20.647   4.532 -0.0388  0.0855 -0.0801
 2556CHOL    C128843  14.533  20.547   4.727 -0.0261  0.0717 -0.0688
 2556CHOL    C228844  14.201  20.471   5.023  0.1622 -0.3245  0.3632
 2557CHOL   ROH28845  17.346  23.044   6.768  0.1082 -0.0275  0.0736
 2557CHOL    R128846  17.586  23.078   6.412 -0.0377 -0.0407 -0.0271
 2557CHOL    R228847  17.297  23.253   6.494  0.0314  0.0083  0.1142
 2557CHOL    R328848  17.643  23.332   6.073 -0.1331 -0.0194 -0.0274
 2557CHOL    R428849  17.372  23.467   6.282 -0.0175  0.0141  0.1028
 2557CHOL    R528850  17.491  23.360   6.616  0.1052 -0.0413  0.0419
 2557CHOL    R628851  17.617  23.568   6.216 -0.0255 -0.0277  0.0072
 2557CHOL    C128852  17.491  23.661   5.895 -0.1458  0.0277  0.0695
 2557CHOL    C228853  17.602  23.699   5.449 -0.1850  0.2764  0.2099
 2558CHOL   ROH28854  25.811  15.064   7.166 -0.1574  0.0299 -0.0458
 2558CHOL    R128855  26.143  15.032   6.892 -0.0905  0.0089  0.0372
 2558CHOL    R228856  25.803  15.036   6.819 -0.0736 -0.0225 -0.0438
 2558CHOL    R328857  26.232  15.056   6.475  0.0066 -0.0482  0.0543
 2558CHOL    R428858  25.871  15.109   6.525 -0.0088 -0.0624 -0.0386
 2558CHOL    R528859  25.878  15.274   6.856 -0.0970 -0.0124 -0.0616
 2558CHOL    R628860  26.067  15.273   6.429  0.0040 -0.0650 -0.0172
 2558CHOL    C128861  26.055  15.101   6.115  0.0887 -0.1126  0.0055
 2558CHOL    C228862  26.178  15.164   5.702  0.0755 -0.2290 -0.0949
 2559CHOL   ROH28863  16.672   7.437   6.581  0.0186 -0.0115  0.1372
 2559CHOL    R128864  16.967   7.500   6.272 -0.0304 -0.0423  0.0840
 2559CHOL    R228865  16.620   7.501   6.242 -0.0365  0.0261  0.1526
 2559CHOL    R328866  17.000   7.640   5.870 -0.0835 -0.0158  0.0887
 2559CHOL    R428867  16.647   7.653   5.974 -0.0607  0.0429  0.1595
 2559CHOL    R528868  16.691   7.725   6.334  0.0244  0.0053  0.1570
 2559CHOL    R628869  16.823   7.850   5.903 -0.0370  0.0153  0.1411
 2559CHOL    C128870  16.777   7.766   5.559 -0.1211  0.0522  0.1432
 2559CHOL    C228871  16.893   7.676   5.144  0.1574 -0.0732 -0.1008
 2560CHOL   ROH28872  11.384   7.125   7.126  0.0055  0.2470  0.0892
 2560CHOL    R128873  11.340   6.931   6.744  0.0762  0.0248  0.1922
 2560CHOL    R228874  11.517   7.220   6.819 -0.1364  0.2046  0.0137
 2560CHOL    R328875  11.505   6.933   6.349 -0.0103 -0.0349  0.1553
 2560CHOL    R428876  11.675   7.188   6.554 -0.1667  0.2014 -0.0041
 2560CHOL    R528877  11.659   7.023   6.885  0.0358  0.3481  0.0807
 2560CHOL    R628878  11.767   6.960   6.435 -0.0115  0.2151  0.0874
 2560CHOL    C128879  11.772   7.129   6.119 -0.2137  0.0677  0.0031
 2560CHOL    C228880  11.779   7.026   5.719  0.1572 -0.0254  0.2909
 2561CHOL   ROH28881  17.285   9.713   3.655 -0.0276 -0.1735 -0.1389
 2561CHOL    R128882  17.417   9.700   4.066  0.0719  0.0143 -0.1639
 2561CHOL    R228883  17.091   9.704   3.945  0.0418 -0.1507 -0.0916
 2561CHOL    R328884  17.269   9.627   4.460  0.1900  0.0896 -0.1050
 2561CHOL    R428885  16.993   9.598   4.219  0.1451 -0.0969 -0.0329
 2561CHOL    R528886  17.178   9.468   3.926  0.1273 -0.1245 -0.0319
 2561CHOL    R628887  17.108   9.415   4.385  0.2530  0.0023  0.0028
 2561CHOL    C128888  16.928   9.553   4.661  0.2637  0.0262 -0.0022
 2561CHOL    C228889  16.711   9.560   5.032  0.3557 -0.2330 -0.0216
 2562CHOL   ROH28890  12.783   1.065   7.282 -0.0041 -0.2648 -0.1269
 2562CHOL    R128891  12.618   1.060   6.884 -0.0354  0.0569 -0.1202
 2562CHOL    R228892  12.878   1.256   7.006  0.1101 -0.1859 -0.0340
 2562CHOL    R328893  12.702   1.199   6.488  0.0341  0.2054 -0.0541
 2562CHOL    R428894  12.969   1.310   6.715  0.1281 -0.0974 -0.0121
 2562CHOL    R528895  12.971   1.027   6.954 -0.0518 -0.2245 -0.1589
 2562CHOL    R628896  12.972   1.142   6.500 -0.0035  0.0109 -0.1006
 2562CHOL    C128897  12.964   1.424   6.280  0.1766  0.1325  0.0458
 2562CHOL    C228898  12.958   1.532   5.871 -0.1599 -0.3295 -0.0585
 2563CHOL   ROH28899  21.883  14.710   6.875 -0.1046 -0.2342 -0.0477
 2563CHOL    R128900  21.997  14.620   6.469 -0.0539 -0.1804 -0.0457
 2563CHOL    R228901  21.726  14.807   6.579  0.0019 -0.0911 -0.0587
 2563CHOL    R328902  21.913  14.737   6.067  0.0854 -0.0418 -0.0351
 2563CHOL    R428903  21.702  14.932   6.297  0.1183 -0.0091 -0.0326
 2563CHOL    R528904  21.930  14.954   6.588  0.0641 -0.1810  0.0240
 2563CHOL    R628905  21.900  15.008   6.124  0.1892 -0.0501  0.0301
 2563CHOL    C128906  21.671  14.977   5.851  0.2357  0.1176 -0.0287
 2563CHOL    C228907  21.472  14.872   5.452  0.1744  0.1681 -0.3736
 2564CHOL   ROH28908   1.511  15.783   3.892 -0.1334 -0.2811  0.1658
 2564CHOL    R128909   1.814  15.512   4.037  0.0760 -0.1330  0.0106
 2564CHOL    R228910   1.760  15.843   4.129 -0.1276 -0.2002  0.1394
 2564CHOL    R328911   2.102  15.473   4.350  0.1625 -0.0540 -0.0587
 2564CHOL    R428912   1.926  15.794   4.385 -0.0459 -0.1818  0.0902
 2564CHOL    R528913   1.594  15.699   4.253 -0.0090 -0.3561  0.1205
 2564CHOL    R628914   1.936  15.574   4.547  0.1314 -0.2347  0.0100
 2564CHOL    C128915   2.259  15.674   4.662  0.0883 -0.0605 -0.0170
 2564CHOL    C228916   2.599  15.473   4.866 -0.0096 -0.1626  0.2374
 2565CHOL   ROH28917  10.640   3.396   4.132 -0.1431 -0.1436 -0.2184
 2565CHOL    R128918  10.396   3.050   4.216 -0.0824 -0.1603 -0.1085
 2565CHOL    R228919  10.646   3.190   4.414 -0.1571 -0.0099 -0.1193
 2565CHOL    R328920  10.290   2.789   4.537 -0.0925 -0.0332 -0.0077
 2565CHOL    R428921  10.530   3.039   4.659 -0.1758  0.0794 -0.0728
 2565CHOL    R528922  10.436   3.327   4.445 -0.1951 -0.0422 -0.2295
 2565CHOL    R628923  10.270   2.991   4.725 -0.1795  0.0519 -0.1067
 2565CHOL    C128924  10.374   2.712   4.924 -0.1587  0.1684  0.0480
 2565CHOL    C228925  10.333   2.284   5.044  0.0974  0.1610 -0.1495
 2566CHOL   ROH28926  25.316  19.340   5.352  0.0838  0.0526 -0.0155
 2566CHOL    R128927  25.307  18.913   5.293  0.0396  0.0634 -0.0890
 2566CHOL    R228928  25.206  19.094   5.573  0.1108  0.0220 -0.0362
 2566CHOL    R328929  25.142  18.558   5.464  0.0485  0.0456 -0.1176
 2566CHOL    R428930  25.041  18.848   5.667  0.1118  0.0176 -0.0456
 2566CHOL    R528931  25.021  19.105   5.401  0.0763  0.0661  0.0037
 2566CHOL    R628932  24.896  18.671   5.519  0.0681  0.0546 -0.0469
 2566CHOL    C128933  24.927  18.429   5.780  0.1040  0.0063 -0.0958
 2566CHOL    C228934  25.208  18.101   5.890 -0.1472  0.0788  0.0048
 2567CHOL   ROH28935  22.509  12.171   5.592 -0.0247  0.0216 -0.1173
 2567CHOL    R128936  22.938  12.164   5.551 -0.0133 -0.0049  0.0031
 2567CHOL    R228937  22.726  12.440   5.541  0.0012  0.0032 -0.1038
 2567CHOL    R328938  23.276  12.427   5.551 -0.0016 -0.0200  0.0512
 2567CHOL    R428939  22.968  12.624   5.597 -0.0057  0.0020 -0.0683
 2567CHOL    R528940  22.763  12.378   5.783 -0.0686  0.0434 -0.0824
 2567CHOL    R628941  23.183  12.582   5.760 -0.0527  0.0206 -0.0013
 2567CHOL    C128942  23.373  12.818   5.569  0.0110 -0.0212  0.0103
 2567CHOL    C228943  23.775  12.985   5.628 -0.1083 -0.0333 -0.2575
 2568CHOL   ROH28944   5.816   6.558   7.196  0.1438 -0.1876 -0.0141
 2568CHOL    R128945   5.917   6.561   6.776  0.0525 -0.0076 -0.0357
 2568CHOL    R228946   5.611   6.487   6.923  0.1154 -0.1875  0.0073
 2568CHOL    R328947   5.733   6.553   6.390 -0.0274  0.0388  0.0012
 2568CHOL    R428948   5.472   6.536   6.650  0.0352 -0.1579  0.0528
 2568CHOL    R528949   5.634   6.738   6.915  0.0052 -0.1738  0.0834
 2568CHOL    R628950   5.527   6.724   6.460 -0.0868 -0.0720  0.1017
 2568CHOL    C128951   5.373   6.517   6.212 -0.0511 -0.0581  0.0678
 2568CHOL    C228952   5.255   6.493   5.801 -0.2171 -0.0896  0.2689
 2569CHOL   ROH28953  14.676   9.973   4.059 -0.2765  0.1322 -0.1092
 2569CHOL    R128954  14.617  10.294   4.341  0.1497  0.0610  0.0693
 2569CHOL    R228955  14.592   9.952   4.397 -0.3380  0.0558 -0.1290
 2569CHOL    R328956  14.579  10.365   4.761  0.2105 -0.1253  0.1070
 2569CHOL    R428957  14.620  10.004   4.701 -0.2915 -0.1571 -0.0952
 2569CHOL    R528958  14.837  10.014   4.401 -0.2460 -0.2892 -0.0674
 2569CHOL    R628959  14.777  10.185   4.832 -0.0451 -0.4488  0.0254
 2569CHOL    C128960  14.557  10.171   5.114 -0.0946 -0.3012 -0.0050
 2569CHOL    C228961  14.483  10.351   5.503 -0.0287 -0.2328  0.0122
 2570CHOL   ROH28962  11.848   4.346   3.912 -0.1519  0.0427  0.0178
 2570CHOL    R128963  11.740   4.583   4.256 -0.1285  0.0501  0.0200
 2570CHOL    R228964  11.670   4.248   4.195 -0.1254  0.0467  0.0359
 2570CHOL    R328965  11.590   4.541   4.655 -0.0936  0.0582  0.0340
 2570CHOL    R428966  11.614   4.209   4.498 -0.0987  0.0541  0.0417
 2570CHOL    R528967  11.908   4.264   4.278 -0.1187  0.0550  0.0151
 2570CHOL    R628968  11.743   4.318   4.713 -0.0831  0.0637  0.0277
 2570CHOL    C128969  11.451   4.264   4.913 -0.0647  0.0623  0.0540
 2570CHOL    C228970  11.357   4.534   5.197 -0.2005 -0.0188  0.0065
 2571CHOL   ROH28971   5.412  10.089   5.163  0.1542  0.0192 -0.1031
 2571CHOL    R128972   5.429   9.727   4.928  0.0581  0.0416 -0.1449
 2571CHOL    R228973   5.494   9.767   5.268  0.0193 -0.0241 -0.1296
 2571CHOL    R328974   5.453   9.303   4.975 -0.1050  0.0265 -0.1931
 2571CHOL    R428975   5.456   9.461   5.307 -0.0988 -0.0154 -0.1730
 2571CHOL    R528976   5.243   9.757   5.237  0.0202  0.0715 -0.1704
 2571CHOL    R628977   5.276   9.293   5.188 -0.1423  0.0648 -0.2220
 2571CHOL    C128978   5.493   9.017   5.256 -0.2542 -0.0234 -0.2216
 2571CHOL    C228979   5.523   8.580   5.142 -0.2292  0.3686 -0.3807
 2572CHOL   ROH28980  16.138   4.799   4.066 -0.0629 -0.2164  0.0759
 2572CHOL    R128981  16.158   5.075   4.397  0.1164 -0.1338 -0.0024
 2572CHOL    R228982  16.049   4.745   4.399 -0.1047 -0.0624  0.0908
 2572CHOL    R328983  16.135   5.083   4.824  0.1158  0.0032 -0.0046
 2572CHOL    R428984  16.087   4.738   4.706 -0.1133  0.0002  0.0934
 2572CHOL    R528985  16.301   4.744   4.405 -0.1040 -0.2290  0.0938
 2572CHOL    R628986  16.283   4.852   4.859 -0.0388 -0.0861  0.0632
 2572CHOL    C128987  16.064   4.846   5.142 -0.0476  0.1405  0.0627
 2572CHOL    C228988  16.119   4.976   5.531  0.1201 -0.1643 -0.0551
 2573CHOL   ROH28989   9.701   4.135   7.259  0.1430  0.0793 -0.0978
 2573CHOL    R128990   9.903   3.904   6.957  0.0326  0.0330 -0.1368
 2573CHOL    R228991   9.685   4.171   6.913  0.0813  0.0798 -0.0950
 2573CHOL    R328992   9.994   3.910   6.539 -0.0495  0.0101 -0.1552
 2573CHOL    R428993   9.794   4.207   6.625  0.0315  0.0540 -0.1172
 2573CHOL    R528994   9.912   4.264   6.971  0.1132  0.0315 -0.1412
 2573CHOL    R628995  10.049   4.182   6.532  0.0076 -0.0018 -0.1683
 2573CHOL    C128996   9.923   4.122   6.203 -0.0712  0.0228 -0.1426
 2573CHOL    C228997   9.981   4.033   5.778  0.0402  0.0066  0.0045
 2574CHOL   ROH28998   1.207   2.261   4.861  0.0411  0.1833  0.1197
 2574CHOL    R128999   1.205   2.530   5.198 -0.0770  0.0939  0.1913
 2574CHOL    R229000   1.101   2.198   5.187  0.0914  0.0427  0.1099
 2574CHOL    R329001   1.159   2.530   5.623 -0.0525 -0.0420  0.1942
 2574CHOL    R429002   1.122   2.186   5.496  0.1154 -0.0285  0.1056
 2574CHOL    R529003   1.352   2.201   5.207  0.0919  0.1657  0.0954
 2574CHOL    R629004   1.307   2.300   5.661  0.0676  0.0226  0.1245
 2574CHOL    C129005   1.073   2.285   5.932  0.0899 -0.1681  0.1350
 2574CHOL    C229006   0.942   2.483   6.265  0.1278  0.2985 -0.0097
 2575CHOL   ROH29007  16.793  16.482   7.196 -0.0887 -0.1004 -0.2496
 2575CHOL    R129008  16.754  16.891   7.062  0.1141 -0.0002 -0.0097
 2575CHOL    R229009  16.965  16.643   6.938 -0.0723 -0.0598 -0.2135
 2575CHOL    R329010  16.864  17.145   6.737  0.1650  0.1161  0.0977
 2575CHOL    R429011  16.999  16.808   6.678 -0.0550  0.0653 -0.1328
 2575CHOL    R529012  16.735  16.606   6.841 -0.1261  0.1326 -0.1641
 2575CHOL    R629013  16.814  16.956   6.542 -0.0101  0.2534  0.0061
 2575CHOL    C129014  17.078  17.148   6.395  0.0602  0.1772  0.0319
 2575CHOL    C229015  17.221  17.465   6.128 -0.1761 -0.0945 -0.0364
 2576CHOL   ROH29016  15.611  20.081   5.553 -0.0576 -0.0306 -0.0255
 2576CHOL    R129017  15.953  20.318   5.441 -0.0363 -0.0447  0.0090
 2576CHOL    R229018  15.634  20.428   5.527 -0.0563 -0.0345 -0.0770
 2576CHOL    R329019  16.091  20.723   5.442 -0.0416 -0.0428 -0.0273
 2576CHOL    R429020  15.751  20.711   5.580 -0.0712 -0.0244 -0.0981
 2576CHOL    R529021  15.760  20.377   5.740 -0.1011  0.0017 -0.0416
 2576CHOL    R629022  15.989  20.781   5.693 -0.0958 -0.0032 -0.0584
 2576CHOL    C129023  15.972  21.098   5.528 -0.0647 -0.0301 -0.1140
 2576CHOL    C229024  16.016  21.391   5.219 -0.3110 -0.1791 -0.1716
 2577CHOL   ROH29025   7.723  16.390   4.841  0.1628 -0.0356 -0.0692
 2577CHOL    R129026   7.599  16.803   4.845 -0.0405 -0.0962  0.0271
 2577CHOL    R229027   7.608  16.579   5.111  0.1470 -0.1320 -0.0079
 2577CHOL    R329028   7.511  17.120   5.118 -0.1189 -0.1798  0.0994
 2577CHOL    R429029   7.599  16.818   5.308  0.0858 -0.1653  0.0299
 2577CHOL    R529030   7.842  16.666   5.075  0.0943 -0.0110 -0.0632
 2577CHOL    R629031   7.719  17.062   5.290 -0.0396 -0.1024  0.0305
 2577CHOL    C129032   7.475  17.198   5.512 -0.0439 -0.2559  0.1217
 2577CHOL    C229033   7.352  17.613   5.568  0.0475 -0.1057 -0.1089
 2578CHOL   ROH29034  12.865   8.904   6.381 -0.1163 -0.0649  0.0047
 2578CHOL    R129035  12.662   9.285   6.375  0.0891  0.0468  0.0498
 2578CHOL    R229036  12.779   9.099   6.105 -0.1916 -0.0845  0.0140
 2578CHOL    R329037  12.467   9.553   6.104  0.0570  0.0890  0.1144
 2578CHOL    R429038  12.594   9.262   5.917 -0.2270 -0.0272  0.0980
 2578CHOL    R529039  12.559   9.001   6.177 -0.2001  0.0545  0.1843
 2578CHOL    R629040  12.340   9.353   5.961 -0.1494  0.1236  0.2454
 2578CHOL    C129041  12.388   9.605   5.712 -0.1744  0.0374  0.1527
 2578CHOL    C229042  12.200   9.947   5.501 -0.2318  0.2607 -0.1840
 2579CHOL   ROH29043   0.315  24.049   5.575  0.2887  0.1757  0.1052
 2579CHOL    R129044   0.352  24.395   5.831  0.1493  0.2122  0.0768
 2579CHOL    R229045   0.206  24.375   5.516  0.1609  0.1284  0.0764
 2579CHOL    R329046   0.204  24.794   5.873 -0.0086  0.1583  0.0414
 2579CHOL    R429047   0.057  24.641   5.573  0.0554  0.0748  0.0521
 2579CHOL    R529048   0.040  24.288   5.684  0.1929  0.0769  0.0814
 2579CHOL    R629049  -0.056  24.729   5.806  0.0174  0.0500  0.0432
 2579CHOL    C129050  -0.030  25.066   5.689 -0.1136  0.0513  0.0154
 2579CHOL    C229051  -0.034  25.496   5.729 -0.0901 -0.2021 -0.0062
 2580CHOL   ROH29052  25.970  11.730   4.265 -0.1267 -0.1470 -0.0311
 2580CHOL    R129053  25.586  11.867   4.407 -0.0650 -0.0282  0.0228
 2580CHOL    R229054  25.760  11.580   4.500 -0.1353 -0.0765  0.0064
 2580CHOL    R329055  25.302  11.793   4.718 -0.0394  0.0672  0.0690
 2580CHOL    R429056  25.585  11.562   4.755 -0.1019 -0.0155  0.0339
 2580CHOL    R529057  25.858  11.775   4.626 -0.0584 -0.1008 -0.0156
 2580CHOL    R629058  25.492  11.762   4.916 -0.0182  0.0181  0.0410
 2580CHOL    C129059  25.229  11.547   5.029 -0.0647  0.0998  0.0890
 2580CHOL    C229060  24.835  11.478   5.183  0.1358 -0.1513  0.0766
 2581CHOL   ROH29061   5.940  25.751   7.315  0.0324  0.0056  0.0547
 2581CHOL    R129062   6.016  26.034   6.999  0.1092 -0.0122  0.0570
 2581CHOL    R229063   5.882  25.714   6.973  0.0534  0.0116  0.0505
 2581CHOL    R329064   5.926  26.104   6.587  0.1550 -0.0011  0.0489
 2581CHOL    R429065   5.770  25.788   6.693  0.0892  0.0280  0.0405
 2581CHOL    R529066   5.698  25.870   7.047  0.0754  0.0459  0.0336
 2581CHOL    R629067   5.662  26.023   6.607  0.1386  0.0467  0.0287
 2581CHOL    C129068   5.742  25.935   6.270  0.1501  0.0278  0.0363
 2581CHOL    C229069   5.926  26.016   5.890 -0.1980  0.1740 -0.2890
 2582CHOL   ROH29070   8.025  25.114   7.281 -0.0639 -0.0151 -0.0599
 2582CHOL    R129071   7.872  24.904   6.937 -0.0285  0.0049 -0.0879
 2582CHOL    R229072   8.045  25.206   6.945 -0.0686  0.0268 -0.0486
 2582CHOL    R329073   7.900  24.902   6.510 -0.0187  0.0587 -0.0876
 2582CHOL    R429074   8.110  25.173   6.644 -0.0576  0.0709 -0.0511
 2582CHOL    R529075   8.213  25.019   6.965 -0.0443  0.0468 -0.0669
 2582CHOL    R629076   8.173  24.947   6.505 -0.0245  0.0956 -0.0763
 2582CHOL    C129077   8.065  25.105   6.202 -0.0386  0.1168 -0.0602
 2582CHOL    C229078   7.861  25.006   5.853  0.0082 -0.1657  0.0745
 2583CHOL   ROH29079  13.697  23.784   7.399  0.1833 -0.0809 -0.0166
 2583CHOL    R129080  13.533  23.928   7.026 -0.0988 -0.1711  0.0704
 2583CHOL    R229081  13.803  23.715   7.074  0.0540 -0.0125 -0.0744
 2583CHOL    R329082  13.550  23.854   6.605 -0.2771 -0.1541  0.0594
 2583CHOL    R429083  13.777  23.623   6.779 -0.0471 -0.0234 -0.0626
 2583CHOL    R529084  13.592  23.579   7.097  0.1451 -0.1385  0.0356
 2583CHOL    R629085  13.552  23.579   6.631 -0.1007 -0.1541  0.0552
 2583CHOL    C129086  13.741  23.629   6.331 -0.2871 -0.0371 -0.0446
 2583CHOL    C229087  13.522  23.443   6.022 -0.0864  0.1074  0.0493
 2584CHOL   ROH29088  23.160   4.227   4.196  0.0422  0.1340  0.0688
 2584CHOL    R129089  23.391   4.043   4.511 -0.0299 -0.0376  0.0224
 2584CHOL    R229090  23.128   4.269   4.541  0.0314  0.0263  0.0813
 2584CHOL    R329091  23.387   3.984   4.934 -0.0742 -0.1800  0.0027
 2584CHOL    R429092  23.093   4.183   4.836 -0.0123 -0.0641  0.0501
 2584CHOL    R529093  23.030   4.040   4.500 -0.0303  0.0670 -0.0027
 2584CHOL    R629094  23.115   3.934   4.948 -0.0891 -0.1085 -0.0323
 2584CHOL    C129095  23.181   4.084   5.266 -0.0679 -0.2343  0.0232
 2584CHOL    C229096  23.326   3.963   5.651 -0.0562 -0.0541  0.4455
 2585CHOL   ROH29097  25.012  10.185   4.046  0.1781 -0.1985  0.0613
 2585CHOL    R129098  24.925  10.064   4.451 -0.0643  0.0387  0.0830
 2585CHOL    R229099  25.185  10.265   4.338  0.1290 -0.2023  0.0916
 2585CHOL    R329100  25.031  10.155   4.855 -0.1475  0.1330  0.0839
 2585CHOL    R429101  25.223  10.371   4.627  0.0994 -0.1064  0.0608
 2585CHOL    R529102  24.978  10.408   4.353  0.2278 -0.0402 -0.0467
 2585CHOL    R629103  25.035  10.429   4.816  0.0705  0.1151 -0.0333
 2585CHOL    C129104  25.281  10.385   5.072 -0.0566  0.0415  0.0771
 2585CHOL    C229105  25.436  10.379   5.472 -0.1972  0.0751  0.1684
 2586CHOL   ROH29106  16.496   8.866   3.784 -0.0785 -0.2342 -0.0915
 2586CHOL    R129107  16.266   8.589   4.022  0.0067 -0.2574 -0.0357
 2586CHOL    R229108  16.610   8.638   4.022 -0.0131 -0.1135 -0.0062
 2586CHOL    R329109  16.304   8.333   4.362  0.0708 -0.1372  0.0484
 2586CHOL    R429110  16.626   8.498   4.298  0.0106 -0.0221  0.0393
 2586CHOL    R529111  16.506   8.820   4.162 -0.1070 -0.1136 -0.0757
 2586CHOL    R629112  16.454   8.512   4.510 -0.0225 -0.0285  0.0128
 2586CHOL    C129113  16.575   8.197   4.628  0.0943  0.0576  0.1255
 2586CHOL    C229114  16.512   7.892   4.931 -0.0376  0.0236  0.0164
 2587CHOL   ROH29115  27.580  10.589   3.988 -0.0470 -0.0164  0.0353
 2587CHOL    R129116  27.299  10.518   4.307 -0.1453  0.1851 -0.0050
 2587CHOL    R229117  27.632  10.617   4.332 -0.1111  0.0608  0.0390
 2587CHOL    R329118  27.250  10.583   4.727 -0.2117  0.3234 -0.0336
 2587CHOL    R429119  27.577  10.714   4.621 -0.1362  0.1643 -0.0001
 2587CHOL    R529120  27.493  10.821   4.276 -0.0189  0.1001 -0.0490
 2587CHOL    R629121  27.357  10.839   4.723 -0.1100  0.2806 -0.0832
 2587CHOL    C129122  27.445  10.725   5.050 -0.2263  0.3380 -0.0311
 2587CHOL    C229123  27.344  10.488   5.397  0.2869 -0.1569  0.2108
 2588CHOL   ROH29124  27.083  24.846   3.778  0.1048 -0.1311  0.0752
 2588CHOL    R129125  26.832  24.770   4.120 -0.0297  0.0018  0.0074
 2588CHOL    R229126  27.148  24.915   4.113  0.0322 -0.1270  0.0886
 2588CHOL    R329127  26.796  24.870   4.534 -0.1136  0.0539 -0.0120
 2588CHOL    R429128  27.096  25.033   4.395 -0.0051 -0.0800  0.0623
 2588CHOL    R529129  26.980  25.092   4.049  0.1228 -0.0642  0.0216
 2588CHOL    R629130  26.866  25.136   4.500  0.0048  0.0232 -0.0162
 2588CHOL    C129131  26.987  25.068   4.830 -0.1212  0.0038  0.0267
 2588CHOL    C229132  26.892  25.026   5.253  0.0768 -0.2034 -0.3795
 2589CHOL   ROH29133  13.748   2.870   5.267  0.1002  0.0931  0.0343
 2589CHOL    R129134  13.897   2.699   5.634  0.0704  0.0301  0.0173
 2589CHOL    R229135  13.596   2.864   5.581  0.0840  0.0578  0.0258
 2589CHOL    R329136  13.767   2.591   6.027  0.0434 -0.0181 -0.0049
 2589CHOL    R429137  13.485   2.738   5.842  0.0626  0.0273  0.0021
 2589CHOL    R529138  13.570   2.627   5.499  0.0724  0.0713 -0.0098
 2589CHOL    R629139  13.524   2.488   5.943  0.0409  0.0100 -0.0321
 2589CHOL    C129140  13.446   2.609   6.270  0.0324 -0.0321 -0.0185
 2589CHOL    C229141  13.391   2.363   6.642 -0.1030  0.0848  0.2563
 2590CHOL   ROH29142  23.742   2.300   4.259 -0.0428 -0.3182 -0.1104
 2590CHOL    R129143  23.938   2.385   4.634 -0.0494 -0.1510 -0.1438
 2590CHOL    R229144  23.649   2.199   4.580 -0.0348 -0.1960 -0.0690
 2590CHOL    R329145  23.940   2.261   5.043 -0.0397  0.0145 -0.0933
 2590CHOL    R429146  23.685   2.069   4.859 -0.0247 -0.0805 -0.0163
 2590CHOL    R529147  23.847   2.052   4.527 -0.0232 -0.2020 -0.0095
 2590CHOL    R629148  23.914   1.992   4.986 -0.0184 -0.0113  0.0156
 2590CHOL    C129149  23.747   2.018   5.301 -0.0205  0.1031  0.0053
 2590CHOL    C229150  23.993   1.954   5.662 -0.0331 -0.4447 -0.3588
 2591CHOL   ROH29151   6.967   4.315   3.686 -0.1319  0.0246  0.1152
 2591CHOL    R129152   7.104   4.514   4.044 -0.0567  0.0043  0.0979
 2591CHOL    R229153   6.901   4.233   4.018 -0.0794  0.0183  0.1242
 2591CHOL    R329154   7.129   4.456   4.467  0.0133 -0.0109  0.0917
 2591CHOL    R429155   6.966   4.164   4.313 -0.0323  0.0046  0.1106
 2591CHOL    R529156   7.140   4.159   3.986 -0.0896  0.0038  0.0801
 2591CHOL    R629157   7.202   4.190   4.449 -0.0070 -0.0150  0.0704
 2591CHOL    C129158   7.022   4.199   4.758  0.0474 -0.0133  0.1021
 2591CHOL    C229159   7.042   4.337   5.146 -0.2787 -0.1101  0.1506
 2592CHOL   ROH29160  24.701   0.959   7.216  0.0900 -0.0050 -0.0290
 2592CHOL    R129161  24.627   1.098   6.815 -0.0266 -0.0169 -0.0120
 2592CHOL    R229162  24.883   0.890   6.927  0.0724  0.0781 -0.0601
 2592CHOL    R329163  24.746   1.023   6.410 -0.0595  0.0461 -0.0335
 2592CHOL    R429164  24.930   0.797   6.635  0.0638  0.1084 -0.0711
 2592CHOL    R529165  24.675   0.750   6.900  0.1225 -0.0022 -0.0334
 2592CHOL    R629166  24.748   0.747   6.438  0.0523  0.0453 -0.0449
 2592CHOL    C129167  25.001   0.801   6.192 -0.0062  0.1547 -0.0821
 2592CHOL    C229168  25.118   0.842   5.768  0.0802 -0.0568  0.2483
 2593CHOL   ROH29169  25.314   2.898   4.589  0.0453  0.0108 -0.0620
 2593CHOL    R129170  25.456   2.500   4.673 -0.0419 -0.0118 -0.0205
 2593CHOL    R229171  25.526   2.793   4.845  0.0456 -0.0042 -0.0683
 2593CHOL    R329172  25.652   2.274   4.979 -0.0656 -0.0160 -0.0084
 2593CHOL    R429173  25.617   2.624   5.089  0.0289  0.0079 -0.0537
 2593CHOL    R529174  25.299   2.711   4.920  0.0331  0.0605 -0.0344
 2593CHOL    R629175  25.512   2.392   5.187 -0.0170  0.0466 -0.0109
 2593CHOL    C129176  25.825   2.316   5.341 -0.0199 -0.0071 -0.0314
 2593CHOL    C229177  26.208   2.166   5.414 -0.0258 -0.1148  0.0007
 2594CHOL   ROH29178  18.788   9.949   3.932 -0.0913 -0.1367  0.2150
 2594CHOL    R129179  18.939  10.348   3.996 -0.0298 -0.1289  0.0285
 2594CHOL    R229180  18.679  10.187   4.162 -0.0088 -0.0371  0.1519
 2594CHOL    R329181  18.918  10.670   4.277  0.0742 -0.0201 -0.0871
 2594CHOL    R429182  18.704  10.394   4.392  0.0699  0.0473  0.0688
 2594CHOL    R529183  18.897  10.106   4.261  0.0055 -0.0247  0.1304
 2594CHOL    R629184  18.928  10.507   4.500  0.1090  0.0627 -0.0275
 2594CHOL    C129185  18.732  10.782   4.617  0.1684  0.1294 -0.0837
 2594CHOL    C229186  18.775  11.144   4.826 -0.2121 -0.1597  0.2799
 2595CHOL   ROH29187   1.191   0.231   7.230 -0.0571  0.1404  0.0396
 2595CHOL    R129188   1.042   0.462   6.898 -0.0478  0.1366  0.0328
 2595CHOL    R229189   1.326   0.262   6.910 -0.0781  0.0931  0.0260
 2595CHOL    R329190   1.096   0.511   6.477 -0.0743  0.0937  0.0244
 2595CHOL    R429191   1.330   0.255   6.600 -0.1043  0.0672  0.0262
 2595CHOL    R529192   1.127   0.112   6.875 -0.1045  0.1213  0.0544
 2595CHOL    R629193   1.121   0.241   6.425 -0.1208  0.0855  0.0443
 2595CHOL    C129194   1.326   0.385   6.170 -0.1189  0.0327  0.0159
 2595CHOL    C229195   1.379   0.361   5.735 -0.0977 -0.0902 -0.2146
 2596CHOL   ROH29196  10.530  20.035   6.771  0.1069 -0.0632  0.0338
 2596CHOL    R129197  10.687  20.126   6.379 -0.0049 -0.0515 -0.0087
 2596CHOL    R229198  10.451  19.885   6.466  0.1026 -0.1307  0.0678
 2596CHOL    R329199  10.612  20.050   5.965 -0.0584 -0.1309  0.0154
 2596CHOL    R429200  10.361  19.873   6.169  0.0484 -0.2010  0.0869
 2596CHOL    R529201  10.334  20.109   6.454  0.0157 -0.1761  0.0631
 2596CHOL    R629202  10.337  20.075   5.987 -0.0640 -0.2322  0.0665
 2596CHOL    C129203  10.370  19.838   5.721 -0.0273 -0.2527  0.0892
 2596CHOL    C229204  10.392  19.838   5.271  0.1734  0.0162 -0.5027
 2597CHOL   ROH29205  18.340  14.642   6.757 -0.0812  0.0242  0.0241
 2597CHOL    R129206  18.269  14.770   6.352  0.0128  0.0410  0.0126
 2597CHOL    R229207  18.213  14.946   6.646 -0.0176  0.0441  0.0049
 2597CHOL    R329208  18.183  15.123   6.126  0.1046  0.0569  0.0020
 2597CHOL    R429209  18.205  15.209   6.483  0.0502  0.0478  0.0076
 2597CHOL    R529210  18.458  14.963   6.592 -0.0051  0.0104  0.0513
 2597CHOL    R629211  18.356  15.284   6.268  0.1007  0.0302  0.0371
 2597CHOL    C129212  18.101  15.515   6.170  0.1515  0.0676 -0.0070
 2597CHOL    C229213  17.895  15.852   5.964  0.0866 -0.1355 -0.2369
 2598CHOL   ROH29214  11.065  25.228   7.041  0.0917  0.0410  0.0343
 2598CHOL    R129215  11.171  25.240   6.623 -0.0202 -0.1089  0.0006
 2598CHOL    R229216  10.874  25.342   6.772  0.0566  0.0350  0.0566
 2598CHOL    R329217  11.042  25.409   6.252 -0.0644 -0.1638 -0.0092
 2598CHOL    R429218  10.809  25.509   6.520  0.0445 -0.0106  0.0295
 2598CHOL    R529219  11.045  25.525   6.805  0.1299 -0.0152 -0.0402
 2598CHOL    R629220  10.977  25.655   6.361  0.0518 -0.1115 -0.0569
 2598CHOL    C129221  10.744  25.628   6.091 -0.0332 -0.1033  0.0152
 2598CHOL    C229222  10.757  25.577   5.659  0.0247  0.1989 -0.3113
 2599CHOL   ROH29223  23.578  24.444   5.413 -0.0126  0.2429 -0.2640
 2599CHOL    R129224  23.352  24.796   5.519 -0.1935  0.0674 -0.0555
 2599CHOL    R229225  23.581  24.621   5.714  0.0425  0.1799 -0.2272
 2599CHOL    R329226  23.336  25.103   5.817 -0.2291 -0.0079  0.0205
 2599CHOL    R429227  23.608  24.868   5.898 -0.0187  0.1584 -0.1895
 2599CHOL    R529228  23.710  24.770   5.556 -0.1508  0.3036 -0.2722
 2599CHOL    R629229  23.610  25.134   5.833 -0.2382  0.1760 -0.1347
 2599CHOL    C129230  23.506  25.215   6.165 -0.1007  0.0316 -0.0542
 2599CHOL    C229231  23.489  25.577   6.423  0.1329 -0.2182  0.2315
 2600CHOL   ROH29232  21.341   4.162   6.969 -0.2299  0.0007  0.0481
 2600CHOL    R129233  21.266   4.219   6.548 -0.0488 -0.1059  0.0002
 2600CHOL    R229234  21.569   4.156   6.706 -0.1082 -0.0146  0.1533
 2600CHOL    R329235  21.455   4.170   6.168  0.1348 -0.1545  0.0964
 2600CHOL    R429236  21.688   4.068   6.434  0.0332 -0.0525  0.2261
 2600CHOL    R529237  21.447   3.937   6.682 -0.0561 -0.0429  0.1451
 2600CHOL    R629238  21.571   3.927   6.231  0.1517 -0.1190  0.2028
 2600CHOL    C129239  21.806   4.065   6.000  0.2319 -0.1259  0.2796
 2600CHOL    C229240  21.951   4.332   5.649  0.0081  0.2426 -0.2372
 2601CHOL   ROH29241   3.922  18.092   4.082  0.0932  0.2004  0.0897
 2601CHOL    R129242   4.292  18.000   4.286  0.0581  0.0541  0.0887
 2601CHOL    R229243   3.983  18.080   4.426  0.0695  0.0950  0.0906
 2601CHOL    R329244   4.441  17.903   4.675  0.0103 -0.0859  0.0727
 2601CHOL    R429245   4.077  17.957   4.694  0.0224  0.0004  0.0644
 2601CHOL    R529246   3.978  17.837   4.359  0.0124  0.1134  0.0263
 2601CHOL    R629247   4.230  17.736   4.739 -0.0359 -0.0501  0.0156
 2601CHOL    C129248   4.323  17.866   5.059 -0.0226 -0.1575  0.0558
 2601CHOL    C229249   4.645  17.793   5.365 -0.0577 -0.2680  0.0425
 2602CHOL   ROH29250  12.389  14.791   7.364 -0.0657 -0.1566 -0.0385
 2602CHOL    R129251  12.551  15.066   7.074 -0.2295  0.0146  0.0298
 2602CHOL    R229252  12.489  14.725   7.036  0.0831 -0.0400 -0.0172
 2602CHOL    R329253  12.638  15.095   6.656 -0.1400  0.1270  0.0557
 2602CHOL    R429254  12.499  14.762   6.729  0.1353 -0.0053 -0.0116
 2602CHOL    R529255  12.271  14.848   7.007 -0.0199 -0.2312 -0.0658
 2602CHOL    R629256  12.406  14.967   6.576 -0.0068 -0.0741 -0.0189
 2602CHOL    C129257  12.635  14.877   6.316  0.1463  0.1510  0.0354
 2602CHOL    C229258  12.639  14.974   5.889 -0.0104 -0.0108  0.0239
 2603CHOL   ROH29259   0.238  15.796   7.006 -0.0709  0.0947 -0.0292
 2603CHOL    R129260  -0.090  15.787   6.726  0.0163 -0.0543 -0.1280
 2603CHOL    R229261   0.251  15.796   6.657  0.0348  0.0453 -0.0257
 2603CHOL    R329262  -0.171  15.723   6.311  0.1627 -0.1444 -0.1433
 2603CHOL    R429263   0.192  15.696   6.370  0.1543 -0.0183 -0.0288
 2603CHOL    R529264   0.189  15.558   6.714  0.0947  0.0336 -0.0083
 2603CHOL    R629265   0.008  15.513   6.285  0.2389 -0.0911 -0.0571
 2603CHOL    C129266   0.015  15.659   5.959  0.2907 -0.1387 -0.0775
 2603CHOL    C229267  -0.132  15.824   5.564 -0.0933 -0.0492 -0.0742
 2604CHOL   ROH29268   4.183   2.101   4.127 -0.1359  0.1241 -0.0844
 2604CHOL    R129269   3.912   2.221   4.440 -0.0447  0.1189 -0.0030
 2604CHOL    R229270   4.216   2.056   4.471 -0.0667  0.0597 -0.0994
 2604CHOL    R329271   3.894   2.266   4.865  0.0585  0.0499  0.0089
 2604CHOL    R429272   4.226   2.138   4.770  0.0149  0.0073 -0.0874
 2604CHOL    R529273   4.264   2.301   4.440 -0.0304  0.0567 -0.0682
 2604CHOL    R629274   4.149   2.371   4.888  0.0824  0.0010 -0.0301
 2604CHOL    C129275   4.110   2.201   5.199  0.1224 -0.0452 -0.0503
 2604CHOL    C229276   3.893   2.199   5.608 -0.2033 -0.0895 -0.2179
 2605CHOL   ROH29277   7.107   1.859   6.871  0.1480  0.1524 -0.0262
 2605CHOL    R129278   6.884   1.577   6.632  0.1292  0.1097  0.0414
 2605CHOL    R229279   7.035   1.874   6.530  0.0530  0.1317 -0.0074
 2605CHOL    R329280   6.803   1.479   6.223  0.0344  0.0857  0.0658
 2605CHOL    R429281   7.023   1.774   6.237 -0.0102  0.1222 -0.0017
 2605CHOL    R529282   7.214   1.697   6.544  0.0862  0.1614 -0.0511
 2605CHOL    R629283   7.062   1.523   6.137  0.0042  0.1260 -0.0058
 2605CHOL    C129284   6.871   1.608   5.847 -0.0886  0.0872  0.0435
 2605CHOL    C229285   6.598   1.540   5.511  0.1162 -0.1205  0.2313
 2606CHOL   ROH29286   4.386   5.167   7.286 -0.1029 -0.4512 -0.1008
 2606CHOL    R129287   4.680   5.299   6.999 -0.1104  0.0216  0.0986
 2606CHOL    R229288   4.343   5.230   6.946  0.0006 -0.4008 -0.1050
 2606CHOL    R329289   4.710   5.455   6.602 -0.0959  0.1852  0.1635
 2606CHOL    R429290   4.356   5.393   6.682 -0.0660 -0.3001 -0.0467
 2606CHOL    R529291   4.361   5.461   7.046 -0.3528 -0.4045 -0.0204
 2606CHOL    R629292   4.491   5.624   6.628 -0.3321 -0.1031  0.1006
 2606CHOL    C129293   4.485   5.544   6.279 -0.0386 -0.0053  0.0699
 2606CHOL    C229294   4.629   5.814   5.972  0.1372 -0.1093  0.0327
 2607CHOL   ROH29295  12.622   5.397   5.687 -0.1083 -0.0671 -0.1502
 2607CHOL    R129296  13.039   5.290   5.673 -0.0689  0.0836 -0.1454
 2607CHOL    R229297  12.764   5.090   5.599  0.0009 -0.0335 -0.0926
 2607CHOL    R329298  13.298   4.982   5.527  0.0382  0.1481 -0.0926
 2607CHOL    R429299  12.950   4.896   5.446  0.0659  0.0029 -0.0602
 2607CHOL    R529300  12.811   5.236   5.399 -0.0613 -0.0575 -0.1248
 2607CHOL    R629301  13.164   4.952   5.287  0.0388  0.0491 -0.0808
 2607CHOL    C129302  13.292   4.623   5.344  0.1626  0.1072 -0.0178
 2607CHOL    C229303  13.706   4.455   5.308 -0.0994 -0.0586  0.1385
 2608CHOL   ROH29304  17.237  18.688   4.125 -0.1037 -0.0851  0.0064
 2608CHOL    R129305  16.944  18.620   4.435 -0.0598 -0.0115  0.0641
 2608CHOL    R229306  17.289  18.572   4.450 -0.0556  0.0071  0.0320
 2608CHOL    R329307  16.917  18.547   4.855 -0.0009  0.1039  0.0885
 2608CHOL    R429308  17.272  18.574   4.759 -0.0146  0.0921  0.0340
 2608CHOL    R529309  17.243  18.818   4.482 -0.0615  0.0143 -0.0301
 2608CHOL    R629310  17.116  18.727   4.923  0.0008  0.1311  0.0122
 2608CHOL    C129311  17.146  18.481   5.180  0.0452  0.2036  0.0767
 2608CHOL    C229312  16.868  18.377   5.489 -0.0087  0.0811  0.0163
 2609CHOL   ROH29313  25.849  14.097   7.246  0.0189  0.0072 -0.0536
 2609CHOL    R129314  25.837  13.733   7.015 -0.0574 -0.0133 -0.0176
 2609CHOL    R229315  25.802  14.060   6.902 -0.0322 -0.0196 -0.0438
 2609CHOL    R329316  25.850  13.596   6.610 -0.1291 -0.0532 -0.0065
 2609CHOL    R429317  25.866  13.963   6.615 -0.0831 -0.0546 -0.0435
 2609CHOL    R529318  26.049  14.014   6.933 -0.0335 -0.0470 -0.0729
 2609CHOL    R629319  26.045  13.775   6.532 -0.1178 -0.0847 -0.0500
 2609CHOL    C129320  25.857  13.731   6.231 -0.1640 -0.0900 -0.0204
 2609CHOL    C229321  25.859  13.432   5.911 -0.1966 -0.0027  0.2198
 2610CHOL   ROH29322  24.938  23.764   5.308  0.0955  0.0360  0.0258
 2610CHOL    R129323  25.034  23.788   5.728  0.0733 -0.1297  0.0408
 2610CHOL    R229324  24.722  23.818   5.577  0.0977  0.0495  0.0248
 2610CHOL    R329325  24.846  23.786   6.112  0.0424 -0.1627  0.0257
 2610CHOL    R429326  24.588  23.762   5.850  0.0520  0.0260 -0.0023
 2610CHOL    R529327  24.777  23.573   5.594 -0.0096  0.0203 -0.0434
 2610CHOL    R629328  24.664  23.588   6.047 -0.0381 -0.0651 -0.0473
 2610CHOL    C129329  24.483  23.783   6.287  0.0271 -0.0576 -0.0041
 2610CHOL    C229330  24.266  23.766   6.648 -0.0065  0.3213 -0.0288
 2611CHOL   ROH29331  17.458  10.388   5.548  0.0293  0.0834 -0.0107
 2611CHOL    R129332  17.274  10.408   5.159  0.1379 -0.2064 -0.0797
 2611CHOL    R229333  17.178  10.216   5.433 -0.0147  0.0923  0.0814
 2611CHOL    R329334  16.915  10.294   4.955  0.1412 -0.2470 -0.0634
 2611CHOL    R429335  16.898  10.181   5.305  0.0029  0.0912  0.0431
 2611CHOL    R529336  17.092  10.450   5.468  0.0756  0.1652 -0.1627
 2611CHOL    R629337  16.748  10.361   5.165  0.1152  0.0246 -0.1670
 2611CHOL    C129338  16.571  10.092   5.010  0.0406 -0.0495  0.0430
 2611CHOL    C229339  16.247  10.017   4.755  0.4389 -0.0437 -0.0125
 2612CHOL   ROH29340   7.792  10.054   4.203 -0.1962 -0.1615  0.0098
 2612CHOL    R129341   7.513   9.890   4.487 -0.0896 -0.0972  0.1530
 2612CHOL    R229342   7.826  10.028   4.549 -0.0384 -0.1408 -0.0032
 2612CHOL    R329343   7.439   9.873   4.908  0.1040 -0.0545  0.1899
 2612CHOL    R429344   7.747  10.065   4.846  0.1058 -0.1064  0.0319
 2612CHOL    R529345   7.661  10.217   4.520 -0.0231 -0.1175  0.0599
 2612CHOL    R629346   7.506  10.137   4.954  0.1665 -0.0613  0.1391
 2612CHOL    C129347   7.598   9.981   5.262  0.2865 -0.0526  0.1083
 2612CHOL    C229348   7.461   9.842   5.643  0.1124  0.1218  0.3362
 2613CHOL   ROH29349  19.527   0.838   4.001 -0.0153  0.1480  0.1071
 2613CHOL    R129350  19.834   0.771   4.296  0.0001  0.0122  0.0611
 2613CHOL    R229351  19.562   0.987   4.314  0.0458  0.0639  0.1405
 2613CHOL    R329352  19.922   0.850   4.707  0.0565 -0.1069  0.0723
 2613CHOL    R429353  19.596   0.998   4.622  0.0784 -0.0188  0.1402
 2613CHOL    R529354  19.481   0.754   4.368  0.0035  0.0670  0.0911
 2613CHOL    R629355  19.665   0.799   4.796  0.0545 -0.0758  0.0846
 2613CHOL    C129356  19.779   1.044   5.030  0.1278 -0.1565  0.1342
 2613CHOL    C229357  19.923   1.091   5.453 -0.4797 -0.2144 -0.1911
 2614CHOL   ROH29358   0.213  23.910   5.083  0.0498  0.0833 -0.1451
 2614CHOL    R129359  -0.180  24.064   4.993 -0.0218 -0.0781 -0.1134
 2614CHOL    R229360  -0.094  23.815   5.220  0.1084  0.0125 -0.0622
 2614CHOL    R329361  -0.581  24.060   5.143  0.0072 -0.1782 -0.0373
 2614CHOL    R429362  -0.367  23.854   5.361  0.1208 -0.0456 -0.0214
 2614CHOL    R529363  -0.048  24.038   5.328  0.0507  0.0580 -0.1308
 2614CHOL    R629364  -0.506  24.084   5.408  0.0492 -0.0810 -0.0574
 2614CHOL    C129365  -0.809  23.895   5.432  0.1191 -0.1812  0.0500
 2614CHOL    C229366  -1.249  23.813   5.387  0.0114 -0.1020 -0.4350
 2615CHOL   ROH29367  11.503  24.441   6.753  0.3105 -0.1120  0.0628
 2615CHOL    R129368  11.490  24.597   6.352 -0.0868 -0.0314  0.1030
 2615CHOL    R229369  11.447  24.268   6.456  0.2283 -0.0880  0.0641
 2615CHOL    R329370  11.372  24.487   5.956 -0.2838 -0.0307  0.1604
 2615CHOL    R429371  11.311  24.205   6.184  0.0836 -0.1280  0.1450
 2615CHOL    R529372  11.230  24.391   6.494  0.1624 -0.2551  0.2432
 2615CHOL    R629373  11.140  24.358   6.036 -0.1350 -0.2192  0.2967
 2615CHOL    C129374  11.231  24.174   5.743 -0.2040 -0.0886  0.1921
 2615CHOL    C229375  10.893  24.237   5.455  0.2441  0.3150  0.0102
 2616CHOL   ROH29376  12.187  21.113   6.731 -0.1637 -0.0198  0.0446
 2616CHOL    R129377  12.258  21.303   6.350  0.0013 -0.0563  0.0566
 2616CHOL    R229378  12.005  21.080   6.435 -0.0528 -0.0258 -0.0236
 2616CHOL    R329379  12.069  21.373   5.973  0.1533 -0.0681 -0.0228
 2616CHOL    R429380  11.844  21.174   6.187  0.0515 -0.0301 -0.0934
 2616CHOL    R529381  11.939  21.309   6.519 -0.0640 -0.0129 -0.0669
 2616CHOL    R629382  11.820  21.425   6.082  0.1156 -0.0361 -0.1230
 2616CHOL    C129383  11.735  21.283   5.765  0.2247 -0.0529 -0.1449
 2616CHOL    C229384  11.685  21.324   5.329 -0.0319 -0.3633 -0.1830
 2617CHOL   ROH29385  25.608   4.397   4.527  0.1805  0.1946  0.0229
 2617CHOL    R129386  25.471   4.224   4.897  0.0868  0.0622 -0.0726
 2617CHOL    R229387  25.667   4.507   4.852  0.0462  0.1149  0.0752
 2617CHOL    R329388  25.438   4.315   5.314 -0.0752 -0.0617 -0.0574
 2617CHOL    R429389  25.596   4.598   5.140 -0.0713  0.0196  0.0768
 2617CHOL    R529390  25.427   4.572   4.811  0.0470  0.0781  0.0106
 2617CHOL    R629391  25.359   4.577   5.274 -0.1139 -0.0660 -0.0104
 2617CHOL    C129392  25.534   4.598   5.585 -0.2249 -0.1183  0.0564
 2617CHOL    C229393  25.587   4.441   5.986 -0.1796  0.0526  0.0890
 2618CHOL   ROH29394  24.016  19.872   6.960  0.1884 -0.1012 -0.1189
 2618CHOL    R129395  24.276  19.756   6.636  0.0863 -0.1962 -0.1678
 2618CHOL    R229396  23.934  19.819   6.626  0.1147 -0.0250 -0.1134
 2618CHOL    R329397  24.283  19.731   6.210  0.0136 -0.1546 -0.1717
 2618CHOL    R429398  23.954  19.853   6.318  0.0889 -0.0021 -0.1125
 2618CHOL    R529399  24.054  20.041   6.622  0.2247 -0.0834 -0.1061
 2618CHOL    R629400  24.151  19.970   6.170  0.1267 -0.0838 -0.1274
 2618CHOL    C129401  24.049  19.779   5.885 -0.0081 -0.0032 -0.1339
 2618CHOL    C229402  24.127  19.687   5.466  0.1251 -0.0424  0.1497
 2619CHOL   ROH29403  27.409  20.095   4.183 -0.0438 -0.0199 -0.0015
 2619CHOL    R129404  27.044  20.276   4.324  0.0144  0.0655  0.0400
 2619CHOL    R229405  27.172  19.962   4.401 -0.0576  0.0298  0.0142
 2619CHOL    R329406  26.742  20.225   4.622  0.0283  0.1281  0.0653
 2619CHOL    R429407  26.987  19.952   4.649 -0.0374  0.0651  0.0306
 2619CHOL    R529408  27.293  20.132   4.543 -0.0018 -0.0068  0.0107
 2619CHOL    R629409  26.919  20.152   4.822  0.0285  0.0749  0.0459
 2619CHOL    C129410  26.624  19.971   4.913 -0.0087  0.1446  0.0648
 2619CHOL    C229411  26.305  20.121   5.198 -0.2511 -0.0079 -0.3018
 2620CHOL   ROH29412   9.169  14.303   7.131  0.0143 -0.0883 -0.0474
 2620CHOL    R129413   9.196  14.532   6.766 -0.1179 -0.0608 -0.0407
 2620CHOL    R229414   9.310  14.208   6.826  0.0212 -0.0173 -0.0665
 2620CHOL    R329415   9.286  14.484   6.350 -0.1420 -0.0061 -0.0522
 2620CHOL    R429416   9.322  14.160   6.520  0.0090  0.0006 -0.0698
 2620CHOL    R529417   9.062  14.197   6.782  0.0209 -0.1171 -0.0407
 2620CHOL    R629418   9.151  14.244   6.325 -0.0465 -0.0609 -0.0481
 2620CHOL    C129419   9.411  14.210   6.083 -0.0575  0.0564 -0.0772
 2620CHOL    C229420   9.513  14.270   5.674  0.2447  0.0707  0.0622
 2621CHOL   ROH29421  24.926  21.070   6.862  0.1299 -0.2671 -0.1183
 2621CHOL    R129422  24.836  21.153   6.448  0.1297 -0.0962 -0.0845
 2621CHOL    R229423  24.635  21.206   6.727  0.1227 -0.2286 -0.0637
 2621CHOL    R329424  24.554  21.364   6.206  0.1188 -0.0108  0.0020
 2621CHOL    R429425  24.463  21.403   6.561  0.1121 -0.1681  0.0181
 2621CHOL    R529426  24.801  21.396   6.713  0.1104 -0.2112  0.0194
 2621CHOL    R629427  24.542  21.585   6.373  0.1025 -0.0823  0.0964
 2621CHOL    C129428  24.213  21.579   6.231  0.1047 -0.0432  0.0896
 2621CHOL    C229429  23.990  21.868   5.970 -0.0124  0.0216  0.4399
 2622CHOL   ROH29430  22.451   8.467   5.573  0.1283 -0.0043  0.0057
 2622CHOL    R129431  22.424   8.151   5.281  0.1120  0.0687 -0.0721
 2622CHOL    R229432  22.623   8.164   5.566  0.1340  0.0009 -0.0844
 2622CHOL    R329433  22.536   7.743   5.222  0.1160  0.0856 -0.1840
 2622CHOL    R429434  22.658   7.856   5.550  0.1392  0.0053 -0.1647
 2622CHOL    R529435  22.391   8.097   5.637  0.1410 -0.0218 -0.0828
 2622CHOL    R629436  22.476   7.665   5.481  0.1378  0.0190 -0.1987
 2622CHOL    C129437  22.743   7.443   5.395  0.1358  0.0459 -0.2757
 2622CHOL    C229438  22.864   7.089   5.194  0.0957  0.2287 -0.2662
 2623CHOL   ROH29439  12.444   7.025   4.100  0.1312 -0.0180 -0.1164
 2623CHOL    R129440  12.673   7.178   4.432  0.1018 -0.0573 -0.0779
 2623CHOL    R229441  12.328   7.137   4.409  0.0904  0.0815 -0.1673
 2623CHOL    R329442  12.633   7.273   4.847  0.0244  0.0284 -0.1047
 2623CHOL    R429443  12.310   7.152   4.718  0.0098  0.1405 -0.1746
 2623CHOL    R529444  12.430   6.913   4.463 -0.0171  0.0478 -0.1010
 2623CHOL    R629445  12.479   7.051   4.907 -0.0846  0.1014 -0.1100
 2623CHOL    C129446  12.359   7.291   5.143 -0.0519  0.1908 -0.1838
 2623CHOL    C229447  12.346   7.594   5.469 -0.0429  0.2282  0.4506
 2624CHOL   ROH29448   5.535  19.768   5.636  0.0382 -0.0571 -0.2837
 2624CHOL    R129449   5.647  19.635   6.031 -0.0948 -0.0534 -0.2442
 2624CHOL    R229450   5.415  19.879   5.944  0.0131  0.0224 -0.3219
 2624CHOL    R329451   5.519  19.660   6.438 -0.1726  0.0401 -0.2740
 2624CHOL    R429452   5.289  19.855   6.227 -0.0564  0.1008 -0.3455
 2624CHOL    R529453   5.305  19.654   5.916 -0.0640  0.0594 -0.3192
 2624CHOL    R629454   5.250  19.632   6.380 -0.1709  0.1326 -0.3279
 2624CHOL    C129455   5.243  19.837   6.673 -0.1583  0.1690 -0.3530
 2624CHOL    C229456   5.203  19.979   7.091 -0.1617 -0.1547  0.1427
 2625CHOL   ROH29457  21.258   8.327   6.930 -0.1916 -0.0386 -0.0461
 2625CHOL    R129458  21.181   8.578   6.588 -0.0273 -0.0158 -0.0672
 2625CHOL    R229459  21.475   8.411   6.670 -0.1103 -0.1351 -0.0103
 2625CHOL    R329460  21.348   8.682   6.209  0.0834 -0.0950 -0.0407
 2625CHOL    R429461  21.569   8.441   6.377 -0.0456 -0.1822  0.0054
 2625CHOL    R529462  21.318   8.245   6.564 -0.1603 -0.0733 -0.0333
 2625CHOL    R629463  21.425   8.424   6.146 -0.0119 -0.1289 -0.0196
 2625CHOL    C129464  21.673   8.620   5.978  0.0990 -0.2355  0.0184
 2625CHOL    C229465  21.923   8.884   5.741  0.1192  0.4005  0.1374
 2626CHOL   ROH29466  23.775   4.336   6.928 -0.0185  0.0899 -0.0023
 2626CHOL    R129467  23.774   4.543   6.550 -0.1961  0.0635 -0.0170
 2626CHOL    R229468  23.798   4.200   6.608  0.1100  0.0860  0.0078
 2626CHOL    R329469  23.734   4.468   6.131 -0.1205 -0.0029 -0.0126
 2626CHOL    R429470  23.714   4.149   6.314  0.1616 -0.0103  0.0096
 2626CHOL    R529471  23.555   4.266   6.627  0.0485 -0.1300 -0.0022
 2626CHOL    R629472  23.532   4.281   6.160  0.0443 -0.1841 -0.0038
 2626CHOL    C129473  23.698   4.166   5.865  0.1551 -0.0569  0.0080
 2626CHOL    C229474  23.720   4.282   5.467 -0.2575 -0.1626  0.0501
 2627CHOL   ROH29475  14.342   4.564   5.168  0.0062  0.0631 -0.1049
 2627CHOL    R129476  14.398   4.666   5.583 -0.0414 -0.0057 -0.0815
 2627CHOL    R229477  14.309   4.358   5.447  0.0109  0.0073 -0.1454
 2627CHOL    R329478  14.442   4.482   5.967 -0.0481 -0.0704 -0.1116
 2627CHOL    R429479  14.395   4.221   5.711  0.0077 -0.0299 -0.1636
 2627CHOL    R529480  14.559   4.385   5.423  0.0094  0.0452 -0.1201
 2627CHOL    R629481  14.605   4.278   5.875 -0.0133 -0.0318 -0.1359
 2627CHOL    C129482  14.434   4.122   6.148 -0.0147 -0.1049 -0.1784
 2627CHOL    C229483  14.330   4.103   6.556  0.3347  0.3141 -0.2684
 2628CHOL   ROH29484   3.765  18.669   7.192  0.2186 -0.0150  0.0278
 2628CHOL    R129485   3.913  18.732   6.792  0.1401 -0.0074 -0.0002
 2628CHOL    R229486   3.678  18.499   6.900  0.1545 -0.0032  0.0400
 2628CHOL    R329487   3.827  18.628   6.386  0.0551  0.0078  0.0137
 2628CHOL    R429488   3.581  18.467   6.607  0.0946  0.0088  0.0584
 2628CHOL    R529489   3.561  18.722   6.875  0.1565  0.0010  0.0702
 2628CHOL    R629490   3.553  18.656   6.412  0.0613  0.0157  0.0697
 2628CHOL    C129491   3.579  18.401   6.163  0.0030  0.0226  0.0566
 2628CHOL    C229492   3.563  18.293   5.722  0.2387  0.0468 -0.2352
 2629CHOL   ROH29493  15.232  21.740   4.132 -0.0076 -0.1742 -0.2491
 2629CHOL    R129494  14.962  21.404   4.140  0.0132 -0.1867  0.0053
 2629CHOL    R229495  15.025  21.635   4.392  0.0356 -0.0198 -0.1511
 2629CHOL    R329496  14.640  21.242   4.371  0.0555 -0.0584  0.1560
 2629CHOL    R429497  14.760  21.551   4.530  0.0600  0.0521 -0.0593
 2629CHOL    R529498  14.864  21.740   4.229  0.0060 -0.1342 -0.1966
 2629CHOL    R629499  14.520  21.486   4.418  0.0477 -0.0348  0.0159
 2629CHOL    C129500  14.433  21.303   4.712  0.1004  0.1481  0.1477
 2629CHOL    C229501  14.245  20.968   4.912  0.1288 -0.2786  0.0762
 2630CHOL   ROH29502  19.055   4.981   6.498 -0.1609 -0.1793  0.0567
 2630CHOL    R129503  18.854   4.947   6.118 -0.0571  0.0082 -0.0165
 2630CHOL    R229504  19.196   4.951   6.180 -0.0740 -0.1156  0.0889
 2630CHOL    R329505  18.931   4.847   5.709  0.0360  0.1214 -0.0271
 2630CHOL    R429506  19.244   4.827   5.901 -0.0274 -0.0371  0.0616
 2630CHOL    R529507  19.111   4.719   6.229 -0.1592 -0.1066 -0.0142
 2630CHOL    R629508  19.100   4.636   5.769 -0.0455  0.0502 -0.0458
 2630CHOL    C129509  19.232   4.754   5.457  0.0841  0.1148  0.0325
 2630CHOL    C229510  19.267   4.798   5.024 -0.0114  0.0516  0.1815
 2631CHOL   ROH29511  11.550  22.594   7.225 -0.0856 -0.0056 -0.0687
 2631CHOL    R129512  11.640  22.278   6.945 -0.1188  0.0010 -0.0869
 2631CHOL    R229513  11.466  22.574   6.887 -0.0401  0.0484 -0.0833
 2631CHOL    R329514  11.637  22.197   6.525 -0.0760  0.0436 -0.0956
 2631CHOL    R429515  11.514  22.539   6.583 -0.0033  0.0672 -0.0798
 2631CHOL    R529516  11.713  22.626   6.883 -0.0268 -0.0099 -0.0413
 2631CHOL    R629517  11.735  22.445   6.453 -0.0062  0.0278 -0.0562
 2631CHOL    C129518  11.532  22.359   6.172  0.0152  0.1042 -0.0952
 2631CHOL    C229519  11.590  22.265   5.748 -0.0432 -0.1377  0.0053
 2632CHOL   ROH29520   4.464  19.585   7.122  0.0763  0.1848 -0.0533
 2632CHOL    R129521   4.516  19.752   6.728  0.0246  0.1297 -0.0836
 2632CHOL    R229522   4.521  19.417   6.822  0.0343  0.1428 -0.0379
 2632CHOL    R329523   4.526  19.635   6.316 -0.0319  0.0729 -0.0689
 2632CHOL    R429524   4.473  19.337   6.526 -0.0063  0.1023 -0.0205
 2632CHOL    R529525   4.280  19.489   6.803  0.0324  0.1423 -0.0154
 2632CHOL    R629526   4.315  19.457   6.338 -0.0306  0.0776 -0.0158
 2632CHOL    C129527   4.513  19.309   6.079 -0.0669  0.0401 -0.0221
 2632CHOL    C229528   4.658  19.232   5.668  0.1002  0.0153  0.2115
 2633CHOL   ROH29529  18.911   6.590   6.613  0.1549  0.0761 -0.0011
 2633CHOL    R129530  18.810   6.531   6.197  0.0981 -0.0584  0.0313
 2633CHOL    R229531  19.127   6.561   6.340  0.1151  0.0679 -0.0317
 2633CHOL    R329532  18.990   6.425   5.824  0.0622 -0.1024  0.0265
 2633CHOL    R429533  19.249   6.432   6.086  0.1069  0.0380 -0.0205
 2633CHOL    R529534  19.047   6.325   6.377  0.1887  0.0542  0.0427
 2633CHOL    R629535  19.152   6.228   5.932  0.1374 -0.0290  0.0483
 2633CHOL    C129536  19.348   6.346   5.656  0.0555 -0.0432 -0.0162
 2633CHOL    C229537  19.482   6.395   5.247  0.0322 -0.2247  0.1460
 2634CHOL   ROH29538  19.529  24.705   7.302  0.0020  0.1799  0.0291
 2634CHOL    R129539  19.687  24.547   6.933 -0.0238 -0.0004  0.0945
 2634CHOL    R229540  19.421  24.768   6.976 -0.0055  0.0400  0.0043
 2634CHOL    R329541  19.668  24.608   6.510 -0.0352 -0.1913  0.0665
 2634CHOL    R429542  19.447  24.850   6.678 -0.0105 -0.0975 -0.0348
 2634CHOL    R529543  19.636  24.899   6.993  0.0053  0.0316 -0.0638
 2634CHOL    R629544  19.672  24.884   6.527 -0.0134 -0.1835 -0.0593
 2634CHOL    C129545  19.480  24.829   6.231 -0.0286 -0.3039 -0.0275
 2634CHOL    C229546  19.519  24.960   5.810 -0.2410 -0.3153  0.0216
 2635CHOL   ROH29547  27.311  16.770   7.187 -0.1372  0.0866  0.0460
 2635CHOL    R129548  27.028  16.901   6.888 -0.1574 -0.0383  0.0099
 2635CHOL    R229549  27.308  16.698   6.846 -0.0461  0.1072  0.0406
 2635CHOL    R329550  26.910  16.819   6.485 -0.0521 -0.0730 -0.0144
 2635CHOL    R429551  27.191  16.599   6.577  0.0470  0.0644  0.0154
 2635CHOL    R529552  27.121  16.555   6.938  0.0119  0.0052  0.0016
 2635CHOL    R629553  26.931  16.544   6.510  0.0848 -0.0643 -0.0293
 2635CHOL    C129554  27.010  16.595   6.165  0.1139 -0.0015 -0.0136
 2635CHOL    C229555  26.669  16.639   5.891 -0.1710 -0.0005  0.0232
 2636CHOL   ROH29556  10.770  18.691   6.954 -0.0269 -0.0637  0.0371
 2636CHOL    R129557  10.838  18.415   6.630  0.0097 -0.0109 -0.0005
 2636CHOL    R229558  10.802  18.761   6.613  0.0001 -0.0095  0.0506
 2636CHOL    R329559  10.949  18.408   6.217  0.0453  0.0572  0.0079
 2636CHOL    R429560  10.935  18.757   6.333  0.0242  0.0388  0.0614
 2636CHOL    R529561  11.039  18.710   6.686 -0.0044 -0.0131  0.0630
 2636CHOL    R629562  11.142  18.605   6.242  0.0370  0.0596  0.0553
 2636CHOL    C129563  11.029  18.653   5.906  0.0641  0.1085  0.0530
 2636CHOL    C229564  10.949  18.526   5.473 -0.1511 -0.3274 -0.1142
 2637CHOL   ROH29565  18.330   7.349   6.764 -0.0812 -0.0837 -0.1158
 2637CHOL    R129566  18.479   7.719   6.598  0.1335 -0.1395 -0.0510
 2637CHOL    R229567  18.349   7.444   6.429 -0.0136 -0.0411 -0.1002
 2637CHOL    R329568  18.483   7.940   6.231  0.2732 -0.0836 -0.0162
 2637CHOL    R429569  18.303   7.623   6.180  0.0976  0.0244 -0.0743
 2637CHOL    R529570  18.156   7.579   6.517  0.0579  0.0538 -0.0877
 2637CHOL    R629571  18.220   7.883   6.167  0.2435  0.0736 -0.0372
 2637CHOL    C129572  18.372   7.914   5.845  0.2755  0.0397 -0.0255
 2637CHOL    C229573  18.401   8.127   5.444  0.2508 -0.0205  0.2131
 2638CHOL   ROH29574   0.982  23.370   4.722  0.0663  0.0417  0.0461
 2638CHOL    R129575   0.735  23.272   5.062  0.1554 -0.0375  0.0885
 2638CHOL    R229576   0.702  23.162   4.733  0.0319  0.0884  0.0577
 2638CHOL    R329577   0.431  22.996   5.183  0.1433 -0.0265  0.0829
 2638CHOL    R429578   0.525  22.928   4.833  0.0209  0.0840  0.0281
 2638CHOL    R529579   0.882  23.024   4.844  0.0422  0.0148 -0.0490
 2638CHOL    R629580   0.548  22.778   5.059  0.0651 -0.0032 -0.0341
 2638CHOL    C129581   0.200  22.697   5.041  0.0443  0.0671  0.0455
 2638CHOL    C229582  -0.186  22.738   5.184  0.1128  0.1731  0.0758
 2639CHOL   ROH29583  15.272  19.123   7.184  0.0132  0.2814  0.0350
 2639CHOL    R129584  14.948  19.062   6.906  0.1055 -0.0347 -0.0074
 2639CHOL    R229585  15.281  19.135   6.836  0.0541  0.2534  0.0349
 2639CHOL    R329586  14.875  18.996   6.490  0.2247 -0.1423 -0.0117
 2639CHOL    R429587  15.237  19.034   6.546  0.1861  0.1844  0.0385
 2639CHOL    R529588  15.264  18.888   6.886  0.2652  0.2413  0.0571
 2639CHOL    R629589  15.089  18.823   6.457  0.3850  0.0418  0.0374
 2639CHOL    C129590  15.065  18.976   6.135  0.2962 -0.0105  0.0185
 2639CHOL    C229591  14.942  18.979   5.704 -0.2190 -0.1717 -0.2304
 2640CHOL   ROH29592   1.155  25.975   7.668 -0.0931 -0.0309  0.0824
 2640CHOL    R129593   1.244  25.677   7.368  0.0262  0.0688  0.0179
 2640CHOL    R229594   1.088  25.986   7.326  0.0062  0.0655  0.0655
 2640CHOL    R329595   1.260  25.628   6.944  0.1560  0.1988  0.0070
 2640CHOL    R429596   1.151  25.971   7.023  0.0967  0.1637  0.0790
 2640CHOL    R529597   1.337  26.025   7.338 -0.0014  0.0884  0.1504
 2640CHOL    R629598   1.374  25.876   6.897  0.1439  0.2257  0.1153
 2640CHOL    C129599   1.182  25.823   6.599  0.2365  0.2949  0.0425
 2640CHOL    C229600   1.322  25.747   6.178  0.2344  0.0496 -0.1611
 2641CHOL   ROH29601   4.257   8.583   6.875 -0.1661  0.0420 -0.0299
 2641CHOL    R129602   4.410   8.641   6.476 -0.0742 -0.0392 -0.0068
 2641CHOL    R229603   4.080   8.588   6.574 -0.0891 -0.0799 -0.0780
 2641CHOL    R329604   4.277   8.723   6.078  0.0119 -0.1796 -0.0655
 2641CHOL    R429605   3.985   8.701   6.301 -0.0419 -0.1768 -0.1351
 2641CHOL    R529606   4.136   8.831   6.614 -0.1503 -0.0569 -0.1320
 2641CHOL    R629607   4.086   8.908   6.155 -0.0473 -0.1971 -0.1674
 2641CHOL    C129608   3.941   8.769   5.860  0.0587 -0.3112 -0.1666
 2641CHOL    C229609   4.106   8.924   5.496  0.0480  0.1632  0.2659
 2642CHOL   ROH29610  11.695   2.917   7.041  0.0335 -0.1597 -0.1458
 2642CHOL    R129611  11.542   3.170   6.728  0.0416 -0.0533 -0.0643
 2642CHOL    R229612  11.815   2.954   6.716  0.0382 -0.0540 -0.1322
 2642CHOL    R329613  11.577   3.234   6.306  0.0480  0.0856 -0.0432
 2642CHOL    R429614  11.802   2.961   6.407  0.0424  0.0485 -0.1306
 2642CHOL    R529615  11.605   2.817   6.686  0.0365 -0.0408 -0.1803
 2642CHOL    R629616  11.584   2.965   6.243  0.0446  0.1062 -0.1322
 2642CHOL    C129617  11.783   3.109   5.983  0.0503  0.1891 -0.0824
 2642CHOL    C229618  11.700   3.225   5.570 -0.0047  0.2335 -0.3709
 2643CHOL   ROH29619   9.813  26.808   4.833  0.0203 -0.1045 -0.0287
 2643CHOL    R129620   9.962  27.179   4.672 -0.0260 -0.0521  0.0482
 2643CHOL    R229621   9.927  27.088   5.006  0.0218 -0.1409  0.0295
 2643CHOL    R329622  10.172  27.532   4.791 -0.0361 -0.0679  0.1132
 2643CHOL    R429623  10.124  27.314   5.084  0.0155 -0.1470  0.0631
 2643CHOL    R529624  10.139  26.983   4.918  0.0185 -0.1037 -0.0240
 2643CHOL    R629625  10.350  27.398   4.955 -0.0062 -0.0978  0.0567
 2643CHOL    C129626  10.322  27.717   5.117 -0.0088 -0.1413  0.1422
 2643CHOL    C229627  10.577  28.060   5.007  0.0582 -0.1134 -0.2602
 2644CHOL   ROH29628   4.095   7.060   6.463  0.0314 -0.2503 -0.1437
 2644CHOL    R129629   4.102   7.293   6.101 -0.1314 -0.1046 -0.0549
 2644CHOL    R229630   4.008   6.961   6.141  0.1011 -0.1885 -0.1819
 2644CHOL    R329631   3.963   7.283   5.697 -0.1241 -0.0476 -0.0589
 2644CHOL    R429632   3.860   6.974   5.869  0.0914 -0.1880 -0.1765
 2644CHOL    R529633   3.814   7.106   6.212 -0.0019 -0.3505 -0.1253
 2644CHOL    R629634   3.714   7.179   5.761 -0.0525 -0.2470 -0.0978
 2644CHOL    C129635   3.770   7.045   5.434  0.0424 -0.0834 -0.1499
 2644CHOL    C229636   3.836   7.069   5.005  0.1641  0.0114 -0.1615
 2645CHOL   ROH29637   2.077  24.007   4.705  0.0918  0.3425 -0.0237
 2645CHOL    R129638   2.508  24.026   4.729  0.1005  0.1013  0.0407
 2645CHOL    R229639   2.276  24.053   4.988  0.0785  0.1839  0.0127
 2645CHOL    R329640   2.825  24.016   5.016  0.0555 -0.1234  0.0841
 2645CHOL    R429641   2.502  23.991   5.191  0.0162  0.0242  0.0340
 2645CHOL    R529642   2.306  23.809   4.935 -0.0491  0.1760 -0.0252
 2645CHOL    R629643   2.711  23.816   5.169 -0.0766 -0.0876  0.0336
 2645CHOL    C129644   2.893  24.003   5.413 -0.0066 -0.2296  0.0917
 2645CHOL    C229645   3.138  24.131   5.741  0.0676  0.0660  0.1111
 2646CHOL   ROH29646   4.298  11.170   3.762 -0.0200 -0.1343 -0.0451
 2646CHOL    R129647   4.433  11.328   4.140  0.1322 -0.2869 -0.0348
 2646CHOL    R229648   4.128  11.178   4.067 -0.0477  0.0814 -0.0644
 2646CHOL    R329649   4.333  11.326   4.556  0.0812 -0.1528 -0.0459
 2646CHOL    R429650   4.084  11.129   4.370 -0.1423  0.1429 -0.0678
 2646CHOL    R529651   4.299  10.995   4.099 -0.2717 -0.1293 -0.0395
 2646CHOL    R629652   4.265  11.058   4.561 -0.2479 -0.0735 -0.0453
 2646CHOL    C129653   4.051  11.196   4.813 -0.1114  0.1968 -0.0735
 2646CHOL    C229654   3.960  11.276   5.231 -0.0276 -0.0269  0.0429
 2647CHOL   ROH29655   4.101  26.568   4.560 -0.2005 -0.0475 -0.0868
 2647CHOL    R129656   3.883  26.576   4.932 -0.0712 -0.1028 -0.0091
 2647CHOL    R229657   4.092  26.821   4.799 -0.1514 -0.0651 -0.0662
 2647CHOL    R329658   3.764  26.847   5.241 -0.0005 -0.1404  0.0515
 2647CHOL    R429659   3.962  27.029   4.990 -0.1135 -0.0957 -0.0065
 2647CHOL    R529660   3.868  26.840   4.686 -0.1943 -0.0883  0.0138
 2647CHOL    R629661   3.702  27.053   5.067 -0.0902 -0.1370  0.0869
 2647CHOL    C129662   3.806  27.230   5.360 -0.0115 -0.1423  0.0623
 2647CHOL    C229663   3.590  27.361   5.734 -0.3004  0.0771 -0.0673
 2648CHOL   ROH29664   1.988   9.638   5.707 -0.2105 -0.1642 -0.0543
 2648CHOL    R129665   2.394   9.737   5.597 -0.1981 -0.0016  0.1319
 2648CHOL    R229666   2.130   9.649   5.389 -0.0707 -0.0972  0.0090
 2648CHOL    R329667   2.630   9.835   5.255 -0.0811  0.1037  0.2415
 2648CHOL    R429668   2.283   9.772   5.149 -0.0102 -0.0280  0.0827
 2648CHOL    R529669   2.103   9.893   5.449 -0.1931 -0.1093  0.0073
 2648CHOL    R629670   2.438   9.997   5.140 -0.0932  0.0330  0.1612
 2648CHOL    C129671   2.608   9.867   4.853  0.0871  0.1100  0.2320
 2648CHOL    C229672   2.916   9.808   4.545 -0.0354 -0.0292  0.0284
 2649CHOL   ROH29673  14.140  26.740   4.516 -0.1318  0.2450 -0.1999
 2649CHOL    R129674  14.271  26.934   4.878 -0.0765  0.1029 -0.1430
 2649CHOL    R229675  14.169  26.604   4.836 -0.1140  0.1279 -0.2507
 2649CHOL    R329676  14.395  26.844   5.278 -0.0464 -0.0521 -0.1868
 2649CHOL    R429677  14.309  26.531   5.103 -0.0952  0.0187 -0.2900
 2649CHOL    R529678  14.408  26.623   4.758 -0.1199  0.1314 -0.2675
 2649CHOL    R629679  14.545  26.623   5.205 -0.0759 -0.0419 -0.2802
 2649CHOL    C129680  14.436  26.535   5.534 -0.0524 -0.1478 -0.3002
 2649CHOL    C229681  14.541  26.640   5.951  0.1105  0.2001 -0.0717
 2650CHOL   ROH29682  13.098   2.592   7.540  0.1018 -0.0459 -0.1490
 2650CHOL    R129683  13.175   2.604   7.116  0.0711 -0.0945 -0.1561
 2650CHOL    R229684  12.898   2.474   7.280  0.0692 -0.0487 -0.1227
 2650CHOL    R329685  12.977   2.549   6.741  0.0367 -0.1086 -0.1359
 2650CHOL    R429686  12.739   2.487   7.015  0.0505 -0.0566 -0.1119
 2650CHOL    R529687  12.870   2.724   7.267  0.0956 -0.0469 -0.1443
 2650CHOL    R629688  12.744   2.677   6.819  0.0566 -0.0758 -0.1304
 2650CHOL    C129689  12.623   2.437   6.584  0.0126 -0.0850 -0.0985
 2650CHOL    C229690  12.550   2.370   6.154  0.1955 -0.4426  0.0270
 2651CHOL   ROH29691  22.671  11.175   7.000  0.2097 -0.1128 -0.0488
 2651CHOL    R129692  22.812  11.580   6.958 -0.1378 -0.0093 -0.2537
 2651CHOL    R229693  22.882  11.306   6.756  0.1298 -0.0635 -0.0918
 2651CHOL    R329694  23.006  11.836   6.676 -0.3219  0.0060 -0.3686
 2651CHOL    R429695  22.972  11.500   6.531 -0.0082 -0.1083 -0.1870
 2651CHOL    R529696  22.655  11.394   6.691  0.0594 -0.2971 -0.1744
 2651CHOL    R629697  22.866  11.740   6.458 -0.2094 -0.2391 -0.3365
 2651CHOL    C129698  23.180  11.833   6.312 -0.2678 -0.0461 -0.3425
 2651CHOL    C229699  23.568  12.047   6.348 -0.0646  0.2067  0.1014
 2652CHOL   ROH29700   1.328  11.611   6.975  0.1655  0.0166 -0.0825
 2652CHOL    R129701   1.177  11.663   6.574  0.1479  0.0316 -0.0739
 2652CHOL    R229702   1.487  11.541   6.672  0.1003 -0.1034 -0.0897
 2652CHOL    R329703   1.263  11.554   6.170  0.0530 -0.0683 -0.0677
 2652CHOL    R429704   1.522  11.415   6.391  0.0104 -0.1609 -0.0756
 2652CHOL    R529705   1.319  11.354   6.695  0.0127 -0.0200 -0.0451
 2652CHOL    R629706   1.337  11.295   6.231 -0.0648 -0.0953 -0.0386
 2652CHOL    C129707   1.540  11.365   5.945 -0.0610 -0.2335 -0.0703
 2652CHOL    C229708   1.706  11.419   5.550 -0.3560 -0.0188  0.1794
 2653CHOL   ROH29709   6.823  17.075   7.100 -0.1861  0.0185  0.0614
 2653CHOL    R129710   6.612  16.940   6.748 -0.0543 -0.0325  0.0011
 2653CHOL    R229711   6.781  17.240   6.796 -0.1802  0.0285  0.0660
 2653CHOL    R329712   6.562  17.034   6.334  0.0041 -0.0161 -0.0023
 2653CHOL    R429713   6.790  17.279   6.488 -0.1244  0.0585  0.0714
 2653CHOL    R529714   6.952  17.063   6.742 -0.0994  0.0984  0.0895
 2653CHOL    R629715   6.829  17.093   6.292 -0.0082  0.0900  0.0639
 2653CHOL    C129716   6.666  17.308   6.058 -0.0373  0.0481  0.0453
 2653CHOL    C229717   6.623  17.111   5.650  0.0727  0.1539 -0.3292
 2654CHOL   ROH29718  23.739  16.428   3.856 -0.0084 -0.1535 -0.0405
 2654CHOL    R129719  23.485  16.541   4.185 -0.1461 -0.1163 -0.1585
 2654CHOL    R229720  23.678  16.254   4.152  0.0619 -0.0054  0.0622
 2654CHOL    R329721  23.400  16.435   4.591 -0.1429  0.0871 -0.1038
 2654CHOL    R429722  23.660  16.211   4.458  0.0389  0.1801  0.0881
 2654CHOL    R529723  23.830  16.442   4.224 -0.0820  0.1493 -0.0315
 2654CHOL    R629724  23.665  16.395   4.659 -0.1251  0.3164 -0.0290
 2654CHOL    C129725  23.496  16.164   4.874 -0.0017  0.3348  0.0900
 2654CHOL    C229726  23.132  16.031   5.055 -0.0802 -0.0628  0.0725
 2655CHOL   ROH29727  20.852   8.419   4.155 -0.0546  0.0129 -0.0676
 2655CHOL    R129728  20.535   8.459   4.445  0.0334  0.0834  0.0194
 2655CHOL    R229729  20.714   8.173   4.361 -0.0737  0.0366 -0.0520
 2655CHOL    R329730  20.353   8.248   4.770  0.0558  0.1106  0.0496
 2655CHOL    R429731  20.623   8.042   4.627 -0.0428  0.0417 -0.0389
 2655CHOL    R529732  20.855   8.310   4.519  0.0090 -0.0185 -0.0775
 2655CHOL    R629733  20.592   8.155   4.874  0.0558  0.0304 -0.0211
 2655CHOL    C129734  20.364   7.895   4.964  0.0013  0.0907  0.0168
 2655CHOL    C229735  20.045   7.771   5.217 -0.1791  0.0662  0.0498
 2656CHOL   ROH29736   8.312   5.125   3.770  0.1395  0.0491  0.0259
 2656CHOL    R129737   8.425   5.339   4.128  0.1044  0.0284  0.0494
 2656CHOL    R229738   8.122   5.182   4.058  0.1000  0.0597 -0.0020
 2656CHOL    R329739   8.297   5.402   4.531  0.0475  0.0299  0.0313
 2656CHOL    R429740   8.057   5.181   4.361  0.0526  0.0578 -0.0121
 2656CHOL    R529741   8.287   5.005   4.130  0.0716  0.0417  0.0190
 2656CHOL    R629742   8.224   5.139   4.573  0.0154  0.0359  0.0128
 2656CHOL    C129743   7.996   5.316   4.785 -0.0006  0.0523 -0.0180
 2656CHOL    C229744   7.829   5.546   5.103 -0.0177  0.0433  0.0311
 2657CHOL   ROH29745   1.621   1.156   7.087 -0.2416 -0.3728 -0.0932
 2657CHOL    R129746   1.600   1.477   6.800 -0.0865 -0.2226  0.0608
 2657CHOL    R229747   1.756   1.168   6.766 -0.0971 -0.2184 -0.0283
 2657CHOL    R329748   1.671   1.557   6.386  0.1049 -0.0154  0.1321
 2657CHOL    R429749   1.756   1.206   6.458  0.0432 -0.0603 -0.0096
 2657CHOL    R529750   1.509   1.135   6.725 -0.0819 -0.1775 -0.1552
 2657CHOL    R629751   1.566   1.317   6.298  0.1238  0.0379 -0.0386
 2657CHOL    C129752   1.815   1.386   6.051  0.2402  0.1451  0.1066
 2657CHOL    C229753   1.854   1.617   5.698  0.1369 -0.3110  0.1844
 2658CHOL   ROH29754   9.247  25.346   7.052  0.0187  0.2432  0.1099
 2658CHOL    R129755   9.441  25.469   6.687  0.0342 -0.0287  0.0241
 2658CHOL    R229756   9.101  25.429   6.747  0.0214  0.1665  0.0872
 2658CHOL    R329757   9.352  25.643   6.307  0.0722 -0.1700 -0.0503
 2658CHOL    R429758   9.040  25.604   6.499  0.0761  0.0754  0.0093
 2658CHOL    R529759   9.171  25.652   6.842  0.1425  0.1790 -0.0301
 2658CHOL    R629760   9.171  25.826   6.408  0.1738 -0.0313 -0.1157
 2658CHOL    C129761   9.043  25.766   6.079  0.1031 -0.1294 -0.0706
 2658CHOL    C229762   9.001  25.813   5.651 -0.5252  0.0965  0.0724
 2659CHOL   ROH29763  24.279  17.157   4.257 -0.0536 -0.1026 -0.1822
 2659CHOL    R129764  24.011  17.449   4.427 -0.0256 -0.0818 -0.1735
 2659CHOL    R229765  24.039  17.112   4.506  0.0153 -0.0632 -0.1081
 2659CHOL    R329766  23.745  17.503   4.757  0.0594 -0.0262 -0.1139
 2659CHOL    R429767  23.892  17.166   4.774  0.0834 -0.0143 -0.0804
 2659CHOL    R529768  24.224  17.236   4.625  0.0401 -0.0266 -0.1841
 2659CHOL    R629769  23.912  17.381   4.941  0.1159  0.0232 -0.1318
 2659CHOL    C129770  23.588  17.307   5.073  0.1549  0.0322 -0.0292
 2659CHOL    C229771  23.427  17.613   5.349  0.0440 -0.1033 -0.0213
 2660CHOL   ROH29772  16.525  23.916   7.075 -0.2960 -0.0019  0.0365
 2660CHOL    R129773  16.659  23.952   6.667 -0.0224  0.0317  0.1275
 2660CHOL    R229774  16.496  23.684   6.816 -0.1847  0.0466 -0.0202
 2660CHOL    R329775  16.616  23.764   6.285  0.1789  0.1032  0.0680
 2660CHOL    R429776  16.419  23.579   6.535 -0.0285  0.1101 -0.0878
 2660CHOL    R529777  16.323  23.858   6.758 -0.1060  0.0974 -0.1050
 2660CHOL    R629778  16.344  23.718   6.313  0.1489  0.1637 -0.1151
 2660CHOL    C129779  16.446  23.444   6.107  0.2160  0.1724 -0.0933
 2660CHOL    C229780  16.309  23.323   5.705 -0.0541 -0.2107 -0.1699
 2661CHOL   ROH29781  10.190  17.972   3.955 -0.0243  0.0191 -0.0047
 2661CHOL    R129782   9.896  17.825   4.234 -0.0629  0.0748 -0.0158
 2661CHOL    R229783  10.181  18.013   4.301 -0.0007 -0.0248  0.0011
 2661CHOL    R329784   9.771  17.873   4.640 -0.0353  0.0601 -0.0055
 2661CHOL    R429785  10.060  18.091   4.576  0.0324 -0.0232  0.0152
 2661CHOL    R529786  10.001  18.170   4.219  0.0466  0.0439  0.0275
 2661CHOL    R629787   9.802  18.148   4.641  0.0524  0.0505  0.0307
 2661CHOL    C129788   9.870  18.063   4.982  0.0358 -0.0173  0.0173
 2661CHOL    C229789   9.782  17.982   5.395  0.2854 -0.1077 -0.2442
 2662CHOL   ROH29790   5.188  21.178   5.297 -0.0331  0.0034  0.0603
 2662CHOL    R129791   5.048  21.481   5.024  0.0802  0.0982  0.1067
 2662CHOL    R229792   5.318  21.265   4.986 -0.0678 -0.0745  0.0236
 2662CHOL    R329793   5.097  21.611   4.619  0.0453  0.0742  0.0947
 2662CHOL    R429794   5.315  21.321   4.681 -0.1211 -0.0673  0.0254
 2662CHOL    R529795   5.108  21.138   4.928 -0.1668  0.0601  0.0825
 2662CHOL    R629796   5.102  21.356   4.514 -0.1490  0.0715  0.0882
 2662CHOL    C129797   5.311  21.536   4.286 -0.0995 -0.0575  0.0306
 2662CHOL    C229798   5.363  21.930   4.145 -0.0734  0.2816 -0.2973
 2663CHOL   ROH29799   0.493  25.089   3.917 -0.2083 -0.1229 -0.0460
 2663CHOL    R129800   0.241  24.918   4.223 -0.1259 -0.2587 -0.0527
 2663CHOL    R229801   0.585  24.883   4.184 -0.0857  0.0230  0.0256
 2663CHOL    R329802   0.266  24.722   4.602 -0.0335 -0.1406  0.0032
 2663CHOL    R429803   0.605  24.792   4.480 -0.0665  0.1164  0.0534
 2663CHOL    R529804   0.541  25.106   4.294 -0.2972  0.0162 -0.0403
 2663CHOL    R629805   0.469  24.883   4.698 -0.1876  0.0587  0.0031
 2663CHOL    C129806   0.533  24.573   4.865  0.0435  0.1536  0.0956
 2663CHOL    C229807   0.668  24.347   5.207 -0.1710  0.0067  0.1098
 2664CHOL   ROH29808  26.127   6.226   7.313  0.1336  0.0720 -0.1946
 2664CHOL    R129809  26.237   5.921   7.028  0.1808 -0.0373 -0.0602
 2664CHOL    R229810  26.169   6.257   6.968  0.1428 -0.0707 -0.2067
 2664CHOL    R329811  26.368   5.876   6.624  0.2013 -0.1950 -0.0366
 2664CHOL    R429812  26.314   6.233   6.695  0.1560 -0.1701 -0.1915
 2664CHOL    R529813  26.405   6.240   7.054  0.1417 -0.0056 -0.1901
 2664CHOL    R629814  26.540   6.093   6.631  0.1753 -0.1710 -0.1229
 2664CHOL    C129815  26.438   6.089   6.288  0.1886 -0.3299 -0.1255
 2664CHOL    C229816  26.533   5.925   5.887  0.1739 -0.0234 -0.3279
 2665CHOL   ROH29817   3.404  24.811   4.477 -0.0972  0.1387 -0.1144
 2665CHOL    R129818   3.474  25.109   4.782 -0.2532  0.1605 -0.0991
 2665CHOL    R229819   3.255  24.838   4.791 -0.0188 -0.0316 -0.0615
 2665CHOL    R329820   3.395  25.185   5.195 -0.1845  0.0379 -0.0628
 2665CHOL    R429821   3.243  24.863   5.100  0.0605 -0.0826 -0.0541
 2665CHOL    R529822   3.486  24.753   4.843  0.0739  0.1603 -0.1487
 2665CHOL    R629823   3.443  24.925   5.276  0.0670  0.0663 -0.1118
 2665CHOL    C129824   3.199  25.034   5.513  0.0483 -0.1752 -0.0170
 2665CHOL    C229825   2.950  25.298   5.773  0.1999  0.0348 -0.1303
 2666CHOL   ROH29826  17.475  26.902   7.421  0.1497 -0.0101  0.0627
 2666CHOL    R129827  17.295  27.095   7.080  0.1113  0.0177  0.0985
 2666CHOL    R229828  17.595  26.919   7.094  0.0550 -0.0863  0.0233
 2666CHOL    R329829  17.329  27.115   6.654 -0.0133 -0.0386  0.0855
 2666CHOL    R429830  17.587  26.889   6.786 -0.0511 -0.1159  0.0284
 2666CHOL    R529831  17.407  26.752   7.079 -0.0092 -0.0223  0.0987
 2666CHOL    R629832  17.374  26.844   6.622 -0.1183 -0.0582  0.0991
 2666CHOL    C129833  17.556  26.984   6.348 -0.1534 -0.1506  0.0279
 2666CHOL    C229834  17.530  27.054   5.932  0.0958 -0.1151  0.0295
 2667CHOL   ROH29835  14.277  11.242   6.921 -0.1127  0.0983 -0.0218
 2667CHOL    R129836  13.964  11.145   6.641 -0.0779  0.0456 -0.0424
 2667CHOL    R229837  14.274  11.289   6.575 -0.0913  0.0826 -0.0241
 2667CHOL    R329838  13.895  11.106   6.220 -0.0396  0.0182 -0.0462
 2667CHOL    R429839  14.244  11.209   6.277 -0.0574  0.0656 -0.0230
 2667CHOL    R529840  14.307  11.040   6.601 -0.0612  0.0880 -0.0105
 2667CHOL    R629841  14.138  10.982   6.169 -0.0195  0.0472 -0.0215
 2667CHOL    C129842  14.076  11.158   5.864 -0.0180  0.0257 -0.0341
 2667CHOL    C229843  13.882  11.154   5.464 -0.0092  0.1007 -0.1032
 2668CHOL   ROH29844   5.193   9.390   6.619  0.0816 -0.1366 -0.1945
 2668CHOL    R129845   4.922   9.535   6.316 -0.0525 -0.0581 -0.0387
 2668CHOL    R229846   5.261   9.603   6.351 -0.0294 -0.0933 -0.1891
 2668CHOL    R329847   4.923   9.732   5.936 -0.2185  0.0113 -0.0041
 2668CHOL    R429848   5.269   9.694   6.055 -0.1638 -0.0399 -0.1769
 2668CHOL    R529849   5.238   9.376   6.242 -0.1005 -0.0714 -0.2196
 2668CHOL    R629850   5.140   9.591   5.838 -0.2768  0.0107 -0.1343
 2668CHOL    C129851   5.172   9.905   5.670 -0.3314  0.0389 -0.0924
 2668CHOL    C229852   4.981  10.049   5.311 -0.0386 -0.3189 -0.1665
 2669CHOL   ROH29853  17.433   9.359   3.282  0.1721  0.1110  0.1117
 2669CHOL    R129854  17.600   9.404   3.678  0.0460  0.1261  0.1636
 2669CHOL    R229855  17.302   9.249   3.586  0.0684  0.1347  0.0760
 2669CHOL    R329856  17.552   9.257   4.077 -0.0902  0.1513  0.1570
 2669CHOL    R429857  17.300   9.100   3.858 -0.0270  0.1505  0.0842
 2669CHOL    R529858  17.491   9.087   3.541  0.0755  0.1232  0.1467
 2669CHOL    R629859  17.509   8.995   3.999 -0.0774  0.1490  0.1582
 2669CHOL    C129860  17.316   9.018   4.300 -0.1741  0.1754  0.0946
 2669CHOL    C229861  17.206   8.961   4.728  0.1865  0.1337 -0.1953
 2670CHOL   ROH29862  12.353   3.948   3.889 -0.2283 -0.0281 -0.1189
 2670CHOL    R129863  12.277   4.338   4.058 -0.0351 -0.0198 -0.0494
 2670CHOL    R229864  12.246   4.027   4.211 -0.0845 -0.0256 -0.0711
 2670CHOL    R329865  12.211   4.528   4.435  0.1665 -0.0367 -0.0044
 2670CHOL    R429866  12.253   4.166   4.488  0.0634 -0.0569 -0.0584
 2670CHOL    R529867  12.490   4.090   4.213 -0.0617 -0.1083 -0.1531
 2670CHOL    R629868  12.402   4.380   4.570  0.1657 -0.1156 -0.0896
 2670CHOL    C129869  12.163   4.446   4.827  0.2816 -0.0616  0.0048
 2670CHOL    C229870  11.826   4.690   4.990  0.0780  0.1733  0.2560
 2671CHOL   ROH29871  17.369  17.677   4.371 -0.0934  0.0365 -0.1216
 2671CHOL    R129872  17.410  17.640   4.799  0.0057 -0.0484 -0.1379
 2671CHOL    R229873  17.119  17.684   4.613 -0.0289  0.0754 -0.0556
 2671CHOL    R329874  17.174  17.575   5.150  0.0755 -0.0330 -0.0879
 2671CHOL    R429875  16.954  17.583   4.855  0.0014  0.0870 -0.0300
 2671CHOL    R529876  17.182  17.440   4.602 -0.1093  0.0568 -0.1136
 2671CHOL    R629877  17.011  17.384   5.033 -0.0156  0.0382 -0.0786
 2671CHOL    C129878  16.792  17.535   5.272  0.0936  0.0682  0.0039
 2671CHOL    C229879  16.526  17.495   5.624  0.1033 -0.0176 -0.0142
 2672CHOL   ROH29880   9.953  17.500   7.269  0.0668  0.0385 -0.0505
 2672CHOL    R129881   9.805  17.744   6.945  0.0659  0.0349 -0.0527
 2672CHOL    R229882  10.024  17.474   6.928  0.0761  0.0431 -0.0489
 2672CHOL    R329883   9.783  17.750   6.518  0.0761  0.0366 -0.0532
 2672CHOL    R429884   9.962  17.447   6.626  0.0845  0.0424 -0.0506
 2672CHOL    R529885   9.789  17.383   6.947  0.0789  0.0343 -0.0552
 2672CHOL    R629886   9.725  17.481   6.494  0.0865  0.0347 -0.0562
 2672CHOL    C129887   9.904  17.547   6.191  0.0915  0.0430 -0.0515
 2672CHOL    C229888   9.970  17.642   5.752 -0.5038 -0.0439  0.0659
 2673CHOL   ROH29889  20.186  17.336   6.625 -0.0251 -0.0116  0.0905
 2673CHOL    R129890  20.028  17.535   6.276  0.0609  0.0378  0.0795
 2673CHOL    R229891  20.232  17.253   6.289 -0.0298 -0.0278  0.0938
 2673CHOL    R329892  19.977  17.477   5.856  0.0696  0.0526  0.0764
 2673CHOL    R429893  20.149  17.185   5.999 -0.0330 -0.0022  0.0887
 2673CHOL    R529894  19.995  17.180   6.336 -0.0565  0.0483  0.0788
 2673CHOL    R629895  19.906  17.210   5.878 -0.0172  0.0752  0.0728
 2673CHOL    C129896  20.066  17.219   5.559  0.0065  0.0228  0.0832
 2673CHOL    C229897  20.179  17.517   5.244  0.1983  0.2261  0.1180
 2674CHOL   ROH29898   3.545  21.429   7.262  0.1267  0.0934 -0.1898
 2674CHOL    R129899   3.207  21.519   7.008  0.0231  0.0005 -0.0862
 2674CHOL    R229900   3.526  21.415   6.914  0.0266  0.0988 -0.1850
 2674CHOL    R329901   3.074  21.472   6.604 -0.0843 -0.0267 -0.0480
 2674CHOL    R429902   3.413  21.331   6.638 -0.0311  0.0736 -0.1538
 2674CHOL    R529903   3.396  21.211   6.988  0.1097  0.0575 -0.1520
 2674CHOL    R629904   3.173  21.215   6.578 -0.0150  0.0034 -0.0853
 2674CHOL    C129905   3.198  21.341   6.244 -0.1528  0.0217 -0.0893
 2674CHOL    C229906   2.938  21.362   5.916  0.0335 -0.0173  0.1510
 2675CHOL   ROH29907  24.825  17.348   6.641 -0.0742 -0.0539  0.1047
 2675CHOL    R129908  25.070  17.290   6.291 -0.0068  0.0824  0.1287
 2675CHOL    R229909  24.727  17.348   6.306 -0.0390 -0.0938  0.0944
 2675CHOL    R329910  25.058  17.334   5.866  0.0154  0.0888  0.1287
 2675CHOL    R429911  24.733  17.432   6.008 -0.0508 -0.0820  0.0975
 2675CHOL    R529912  24.845  17.569   6.333 -0.1552 -0.0338  0.1136
 2675CHOL    R629913  24.922  17.575   5.872 -0.1091  0.0194  0.1218
 2675CHOL    C129914  24.807  17.431   5.565 -0.0031 -0.0304  0.1053
 2675CHOL    C229915  24.731  17.314   5.177  0.0151 -0.2989 -0.1566
 2676CHOL   ROH29916   6.729  18.169   6.884  0.0165 -0.0716 -0.1425
 2676CHOL    R129917   6.448  18.151   6.557  0.0174 -0.0450 -0.1448
 2676CHOL    R229918   6.774  18.271   6.553  0.0251 -0.0656 -0.1394
 2676CHOL    R329919   6.431  18.188   6.131  0.0226 -0.0323 -0.1439
 2676CHOL    R429920   6.776  18.245   6.245  0.0255 -0.0573 -0.1401
 2676CHOL    R529921   6.784  18.020   6.538  0.0092 -0.0658 -0.1462
 2676CHOL    R629922   6.667  18.051   6.087  0.0142 -0.0462 -0.1461
 2676CHOL    C129923   6.660  18.280   5.812  0.0305 -0.0382 -0.1399
 2676CHOL    C229924   6.504  18.181   5.437 -0.2277  0.1665  0.3161
 2677CHOL   ROH29925  19.614   4.270   6.771  0.0598  0.0074 -0.0106
 2677CHOL    R129926  19.302   4.359   6.486  0.0342  0.0699  0.0366
 2677CHOL    R229927  19.615   4.218   6.427  0.0086  0.0346 -0.0151
 2677CHOL    R329928  19.190   4.279   6.081 -0.0284  0.1163  0.0445
 2677CHOL    R429929  19.511   4.114   6.154 -0.0400  0.0695 -0.0100
 2677CHOL    R529930  19.463   4.036   6.512 -0.0035  0.0473 -0.0098
 2677CHOL    R629931  19.266   4.013   6.089 -0.0614  0.1060  0.0135
 2677CHOL    C129932  19.323   4.098   5.746 -0.0948  0.1260  0.0130
 2677CHOL    C229933  19.245   4.219   5.344  0.0816 -0.0933  0.0324
 2678CHOL   ROH29934   9.183   9.388   6.556  0.0171 -0.1572 -0.0597
 2678CHOL    R129935   9.349   9.582   6.208 -0.0188 -0.0607 -0.0236
 2678CHOL    R229936   9.256   9.248   6.245  0.0122 -0.0777 -0.0969
 2678CHOL    R329937   9.411   9.517   5.790 -0.0362  0.0431 -0.0427
 2678CHOL    R429938   9.249   9.220   5.936 -0.0025 -0.0057 -0.1034
 2678CHOL    R529939   9.047   9.383   6.201 -0.0020 -0.0852 -0.0536
 2678CHOL    R629940   9.164   9.399   5.748 -0.0284  0.0314 -0.0567
 2678CHOL    C129941   9.368   9.236   5.503 -0.0278  0.1066 -0.1065
 2678CHOL    C229942   9.571   9.127   5.131 -0.2264  0.1898 -0.1936
 2679CHOL   ROH29943   3.302  27.208   7.524 -0.0044  0.1460 -0.0216
 2679CHOL    R129944   3.169  27.292   7.122 -0.0684  0.0317 -0.0246
 2679CHOL    R229945   3.441  27.099   7.223  0.0024  0.1357 -0.0147
 2679CHOL    R329946   3.228  27.161   6.719 -0.0645 -0.0223 -0.0067
 2679CHOL    R429947   3.446  26.966   6.943  0.0184  0.0865  0.0087
 2679CHOL    R529948   3.233  26.958   7.246  0.0488  0.0735  0.0298
 2679CHOL    R629949   3.237  26.892   6.783  0.0267 -0.0084  0.0411
 2679CHOL    C129950   3.451  26.909   6.497 -0.0049  0.0083  0.0183
 2679CHOL    C229951   3.581  26.993   6.092  0.1537  0.0026  0.0115
 2680CHOL   ROH29952   1.903  17.243   5.676 -0.1001  0.1072 -0.0073
 2680CHOL    R129953   1.846  17.562   5.960 -0.0570  0.1122 -0.0044
 2680CHOL    R229954   1.701  17.525   5.646 -0.1357  0.0863  0.0348
 2680CHOL    R329955   1.589  17.895   6.038 -0.0691  0.0902  0.0503
 2680CHOL    R429956   1.482  17.729   5.728 -0.1344  0.0680  0.0845
 2680CHOL    R529957   1.574  17.379   5.808 -0.0791  0.0798  0.0737
 2680CHOL    R629958   1.357  17.761   5.968 -0.0746  0.0647  0.1162
 2680CHOL    C129959   1.279  18.099   5.881 -0.1306  0.0538  0.1237
 2680CHOL    C229960   1.056  18.477   5.957 -0.2296 -0.0657  0.2670
 2681CHOL   ROH29961   2.867  16.440   3.781 -0.1287  0.0750  0.0149
 2681CHOL    R129962   3.006  16.127   4.044 -0.1821  0.0304 -0.0098
 2681CHOL    R229963   3.016  16.471   4.095 -0.0837  0.0267 -0.0012
 2681CHOL    R329964   3.133  16.065   4.448 -0.1520 -0.0148 -0.0261
 2681CHOL    R429965   3.053  16.421   4.399 -0.0620  0.0082 -0.0069
 2681CHOL    R529966   2.782  16.391   4.148 -0.0993  0.0878  0.0234
 2681CHOL    R629967   2.940  16.231   4.558 -0.0949  0.0341  0.0008
 2681CHOL    C129968   3.210  16.265   4.790 -0.0588 -0.0449 -0.0293
 2681CHOL    C229969   3.422  16.026   5.088 -0.3252  0.1692 -0.0761
 2682CHOL   ROH29970  18.832  13.193   5.323  0.0344  0.1111 -0.0095
 2682CHOL    R129971  18.574  12.856   5.402  0.1284  0.0225 -0.0788
 2682CHOL    R229972  18.575  13.065   5.124  0.0119  0.1346  0.0045
 2682CHOL    R329973  18.294  12.599   5.206  0.1350  0.0394 -0.1105
 2682CHOL    R429974  18.417  12.851   4.967  0.0192  0.1629 -0.0415
 2682CHOL    R529975  18.761  12.897   5.095  0.0419  0.1866 -0.1104
 2682CHOL    R629976  18.441  12.579   4.972  0.0807  0.1655 -0.1566
 2682CHOL    C129977  18.105  12.548   4.853  0.0569  0.1398 -0.0840
 2682CHOL    C229978  17.716  12.384   4.847 -0.0151  0.1181  0.2891
 2683CHOL   ROH29979   2.559   5.586   7.035 -0.2862  0.1790  0.2495
 2683CHOL    R129980   2.653   5.619   6.615 -0.1594 -0.0864  0.2550
 2683CHOL    R229981   2.345   5.549   6.762 -0.2367  0.1557  0.2138
 2683CHOL    R329982   2.462   5.652   6.234 -0.0433 -0.1769  0.1884
 2683CHOL    R429983   2.205   5.627   6.497 -0.1260  0.0971  0.1372
 2683CHOL    R529984   2.382   5.798   6.774 -0.1043  0.1431  0.0951
 2683CHOL    R629985   2.266   5.828   6.322  0.0283 -0.0245  0.0491
 2683CHOL    C129986   2.098   5.650   6.061 -0.0012 -0.0666  0.0968
 2683CHOL    C229987   2.081   5.724   5.621  0.0699  0.1863  0.0074
 2684CHOL   ROH29988   0.186  21.449   7.334  0.2231  0.0868  0.0350
 2684CHOL    R129989   0.108  21.144   7.039  0.0813  0.1071  0.0506
 2684CHOL    R229990   0.246  21.460   6.991  0.1415  0.0763  0.0203
 2684CHOL    R329991   0.200  21.044   6.633 -0.0408  0.0901  0.0269
 2684CHOL    R429992   0.358  21.366   6.718  0.0532  0.0534 -0.0085
 2684CHOL    R529993   0.428  21.308   7.077  0.1284  0.0340 -0.0259
 2684CHOL    R629994   0.464  21.123   6.649 -0.0185  0.0298 -0.0371
 2684CHOL    C129995   0.387  21.188   6.306 -0.0880  0.0508 -0.0176
 2684CHOL    C229996   0.236  21.155   5.883 -0.2166 -0.0297 -0.2084
 2685CHOL   ROH29997   2.930  18.052   3.983  0.1782  0.0396 -0.0102
 2685CHOL    R129998   3.106  17.867   4.331 -0.1234 -0.0607  0.0924
 2685CHOL    R229999   3.012  18.199   4.289  0.1230  0.0022  0.0230
 2685CHOL    R330000   3.180  17.942   4.745 -0.2835 -0.0866  0.1263
 2685CHOL    R430001   3.014  18.234   4.597 -0.0100  0.0189  0.0224
 2685CHOL    R530002   2.805  18.066   4.342  0.0037  0.1454 -0.0738
 2685CHOL    R630003   2.934  18.060   4.791 -0.2280  0.0836 -0.0064
 2685CHOL    C130004   3.145  18.229   5.027 -0.2323 -0.0449  0.0904
 2685CHOL    C230005   3.149  18.298   5.446 -0.1068  0.1126 -0.1225
 2686CHOL   ROH30006  23.918  11.691   5.196  0.0595 -0.1863  0.0208
 2686CHOL    R130007  23.760  11.813   5.579 -0.0224 -0.0003 -0.0710
 2686CHOL    R230008  24.082  11.859   5.454  0.0638 -0.2417  0.0547
 2686CHOL    R330009  23.855  12.064   5.912  0.0044  0.0067 -0.0838
 2686CHOL    R430010  24.128  12.081   5.665  0.1229 -0.2275  0.0271
 2686CHOL    R530011  23.933  12.036   5.353  0.2243 -0.1618 -0.0463
 2686CHOL    R630012  23.954  12.271   5.757  0.2094 -0.0907 -0.0865
 2686CHOL    C130013  24.147  12.301   6.057  0.1035 -0.1582 -0.0107
 2686CHOL    C230014  24.207  12.572   6.389 -0.1467  0.2036  0.2409
 2687CHOL   ROH30015   2.807   4.329   4.438  0.2373  0.4386 -0.2317
 2687CHOL    R130016   2.771   4.465   4.846 -0.0018  0.0164 -0.1072
 2687CHOL    R230017   2.619   4.595   4.562  0.1463  0.2969 -0.0610
 2687CHOL    R330018   2.531   4.721   5.090 -0.1598 -0.2544  0.0272
 2687CHOL    R430019   2.411   4.738   4.743  0.0330  0.0929 -0.0275
 2687CHOL    R530020   2.488   4.392   4.634  0.1218  0.2086 -0.3426
 2687CHOL    R630021   2.292   4.649   4.972 -0.0883 -0.1548 -0.1824
 2687CHOL    C130022   2.229   4.987   5.069 -0.1699 -0.2570  0.1327
 2687CHOL    C230023   2.233   5.330   5.318 -0.1439 -0.0263  0.2101
 2688CHOL   ROH30024  19.351  16.765   7.252  0.1389 -0.0341 -0.0258
 2688CHOL    R130025  19.324  17.045   6.925 -0.0643 -0.0382 -0.0136
 2688CHOL    R230026  19.339  16.697   6.910  0.1053 -0.0311 -0.0253
 2688CHOL    R330027  19.243  17.058   6.506 -0.1534 -0.0670  0.0024
 2688CHOL    R430028  19.228  16.709   6.622  0.0426 -0.0789 -0.0032
 2688CHOL    R530029  19.102  16.763   6.966  0.0830 -0.1504  0.0229
 2688CHOL    R630030  19.037  16.874   6.516 -0.0604 -0.1700  0.0383
 2688CHOL    C130031  19.171  16.818   6.189 -0.0965 -0.0948  0.0104
 2688CHOL    C230032  18.884  16.936   5.866  0.2545  0.2235 -0.1085
 2689CHOL   ROH30033   6.894   1.654   4.023  0.0926  0.0844  0.0174
 2689CHOL    R130034   7.069   1.409   4.332 -0.0262 -0.0860 -0.0491
 2689CHOL    R230035   6.817   1.648   4.363  0.1426  0.0846  0.0288
 2689CHOL    R330036   7.003   1.289   4.737 -0.0442 -0.1042 -0.0574
 2689CHOL    R430037   6.737   1.522   4.634  0.0988  0.0974  0.0218
 2689CHOL    R530038   6.713   1.435   4.275 -0.0191  0.1693  0.0118
 2689CHOL    R630039   6.729   1.259   4.708 -0.0713  0.0897 -0.0185
 2689CHOL    C130040   6.759   1.354   5.051  0.0507  0.0165 -0.0079
 2689CHOL    C230041   6.972   1.263   5.445 -0.0263 -0.2896 -0.1402
 2690CHOL   ROH30042   8.553  20.731   3.959  0.1930 -0.3104 -0.0365
 2690CHOL    R130043   8.492  20.690   4.384  0.0203 -0.0597 -0.0348
 2690CHOL    R230044   8.741  20.869   4.219  0.1450 -0.2356 -0.0412
 2690CHOL    R330045   8.619  20.860   4.755 -0.0581  0.0971 -0.0790
 2690CHOL    R430046   8.792  21.030   4.478  0.1043 -0.1129 -0.1083
 2690CHOL    R530047   8.530  21.008   4.218  0.1931 -0.1616 -0.1943
 2690CHOL    R630048   8.614  21.121   4.664  0.0668  0.0504 -0.2230
 2690CHOL    C130049   8.875  21.132   4.908 -0.0197  0.0908 -0.1318
 2690CHOL    C230050   8.966  21.214   5.340 -0.0596  0.0033  0.0009
 2691CHOL   ROH30051   1.933   3.928   7.203 -0.1629  0.0873 -0.1131
 2691CHOL    R130052   2.242   3.883   6.906 -0.0701 -0.1058  0.0108
 2691CHOL    R230053   1.899   3.844   6.867 -0.0804  0.1070 -0.1266
 2691CHOL    R330054   2.293   3.848   6.483  0.0784 -0.1391  0.0309
 2691CHOL    R430055   1.934   3.874   6.560  0.0615  0.0840 -0.1131
 2691CHOL    R530056   1.951   4.091   6.860  0.0755  0.0759 -0.1080
 2691CHOL    R630057   2.102   4.039   6.421  0.2202 -0.0200 -0.0475
 2691CHOL    C130058   2.083   3.819   6.140  0.1963 -0.0100 -0.0537
 2691CHOL    C230059   2.170   3.775   5.709  0.2536 -0.0126 -0.0839
 2692CHOL   ROH30060  26.613   1.051   7.217  0.2526  0.3321  0.0846
 2692CHOL    R130061  26.393   1.289   6.933  0.1412  0.2291  0.0836
 2692CHOL    R230062  26.637   1.050   6.869  0.1827  0.2725  0.0796
 2692CHOL    R330063  26.310   1.314   6.514  0.0508  0.1318  0.0953
 2692CHOL    R430064  26.537   1.031   6.577  0.1280  0.1949  0.1030
 2692CHOL    R530065  26.420   0.930   6.913  0.2185  0.2311  0.1458
 2692CHOL    R630066  26.281   1.041   6.480  0.1060  0.1188  0.1523
 2692CHOL    C130067  26.406   1.144   6.162  0.0187  0.0877  0.1076
 2692CHOL    C230068  26.282   1.288   5.750  0.0900 -0.0618 -0.3980
 2693CHOL   ROH30069  24.014  11.869   6.263 -0.0636  0.2927 -0.1944
 2693CHOL    R130070  23.894  11.625   5.928 -0.0221 -0.0121  0.0088
 2693CHOL    R230071  24.196  11.791   5.976 -0.1006  0.1929 -0.1915
 2693CHOL    R330072  24.058  11.431   5.584 -0.0103 -0.1637  0.0990
 2693CHOL    R430073  24.326  11.609   5.761 -0.0588  0.1141 -0.0998
 2693CHOL    R530074  24.203  11.577   6.109  0.0568  0.2888 -0.0415
 2693CHOL    R630075  24.286  11.343   5.713  0.0760  0.0554  0.0983
 2693CHOL    C130076  24.402  11.388   5.377 -0.0437 -0.1150  0.0331
 2693CHOL    C230077  24.455  11.178   4.962 -0.0664 -0.0480 -0.1010
 2694CHOL   ROH30078  26.729  12.447   7.350 -0.0866  0.1716 -0.0419
 2694CHOL    R130079  26.647  12.652   6.979 -0.0708  0.1300 -0.0685
 2694CHOL    R230080  26.724  12.316   7.027 -0.0870  0.1322 -0.0260
 2694CHOL    R330081  26.559  12.572   6.569 -0.0673  0.0838 -0.0602
 2694CHOL    R430082  26.608  12.253   6.747 -0.0850  0.1033 -0.0204
 2694CHOL    R530083  26.480  12.348   7.081 -0.0865  0.1501 -0.0342
 2694CHOL    R630084  26.389  12.360   6.623 -0.0780  0.0981 -0.0372
 2694CHOL    C130085  26.526  12.268   6.305 -0.0766  0.0531 -0.0237
 2694CHOL    C230086  26.392  12.322   5.875 -0.2207  0.2653 -0.1222
 2695CHOL   ROH30087   2.225  23.598   7.394 -0.0458 -0.1869  0.2558
 2695CHOL    R130088   2.286  23.228   7.181 -0.0857 -0.0874  0.0699
 2695CHOL    R230089   2.334  23.553   7.066 -0.0195 -0.0351  0.2430
 2695CHOL    R330090   2.466  23.077   6.824 -0.0742  0.0673  0.0093
 2695CHOL    R430091   2.511  23.442   6.838 -0.0145  0.0538  0.2033
 2695CHOL    R530092   2.535  23.488   7.204 -0.0444 -0.1403  0.2308
 2695CHOL    R630093   2.691  23.236   6.842 -0.0493  0.0208  0.1157
 2695CHOL    C130094   2.655  23.198   6.489 -0.0194  0.2100  0.0908
 2695CHOL    C230095   2.770  22.956   6.141  0.2374 -0.1430 -0.4791
 2696CHOL   ROH30096   9.042  21.265   6.923 -0.1215 -0.0590  0.0959
 2696CHOL    R130097   8.834  21.242   6.546 -0.0988 -0.0711  0.0840
 2696CHOL    R230098   8.828  21.500   6.779 -0.0566 -0.0322  0.0425
 2696CHOL    R330099   8.617  21.487   6.271 -0.0214 -0.0643  0.0287
 2696CHOL    R430100   8.720  21.691   6.560  0.0039 -0.0420  0.0040
 2696CHOL    R530101   9.039  21.523   6.644 -0.0411 -0.1028  0.0546
 2696CHOL    R630102   8.786  21.705   6.295  0.0271 -0.0994  0.0066
 2696CHOL    C130103   8.472  21.861   6.226  0.0683 -0.0375 -0.0417
 2696CHOL    C230104   8.169  22.080   5.988 -0.0931  0.0571 -0.0715
 2697CHOL   ROH30105   4.750  13.290   6.427 -0.0612 -0.3775 -0.0782
 2697CHOL    R130106   4.363  13.400   6.272 -0.0914 -0.3722  0.0000
 2697CHOL    R230107   4.676  13.460   6.132 -0.1111 -0.2482  0.0080
 2697CHOL    R330108   4.178  13.542   5.913 -0.1402 -0.2327  0.0798
 2697CHOL    R430109   4.540  13.510   5.858 -0.1376 -0.1406  0.0400
 2697CHOL    R530110   4.612  13.222   6.080 -0.0712 -0.2353 -0.1027
 2697CHOL    R630111   4.327  13.381   5.745 -0.1218 -0.1251 -0.0079
 2697CHOL    C130112   4.264  13.668   5.540 -0.1868 -0.0369  0.1336
 2697CHOL    C230113   4.029  13.921   5.261  0.2116  0.0316 -0.2242
 2698CHOL   ROH30114   3.666  16.392   5.486  0.2048 -0.2361 -0.0100
 2698CHOL    R130115   3.799  16.304   5.086  0.3376  0.2739 -0.0847
 2698CHOL    R230116   3.505  16.462   5.185  0.1072 -0.2179  0.0457
 2698CHOL    R330117   3.712  16.400   4.678  0.2057  0.4818 -0.0092
 2698CHOL    R430118   3.474  16.576   4.898 -0.0503 -0.0271  0.1358
 2698CHOL    R530119   3.691  16.632   5.193 -0.1299  0.0438  0.1813
 2698CHOL    R630120   3.666  16.669   4.727 -0.1759  0.3841  0.2081
 2698CHOL    C130121   3.449  16.604   4.450 -0.0852  0.2992  0.1564
 2698CHOL    C230122   3.445  16.457   4.031  0.0888 -0.0230 -0.0287
 2699CHOL   ROH30123   3.334  25.554   7.280 -0.0122  0.1605  0.0635
 2699CHOL    R130124   3.620  25.765   7.035  0.0048  0.1066  0.0368
 2699CHOL    R230125   3.327  25.605   6.935 -0.0182  0.1343  0.0597
 2699CHOL    R330126   3.663  25.926   6.641  0.0106  0.0704  0.0225
 2699CHOL    R430127   3.333  25.766   6.671 -0.0079  0.1127  0.0468
 2699CHOL    R530128   3.264  25.830   7.029  0.0125  0.1493  0.0443
 2699CHOL    R630129   3.405  26.026   6.629  0.0222  0.1006  0.0238
 2699CHOL    C130130   3.474  25.951   6.286  0.0009  0.0654  0.0273
 2699CHOL    C230131   3.689  26.118   5.931 -0.0100  0.0442 -0.1949
 2700CHOL   ROH30132  17.991  16.281   4.073 -0.0252  0.2451  0.0422
 2700CHOL    R130133  18.236  16.266   4.428 -0.0485  0.0216  0.0503
 2700CHOL    R230134  17.914  16.394   4.394  0.0186  0.1977  0.0695
 2700CHOL    R330135  18.210  16.315   4.852 -0.0423 -0.0802  0.0628
 2700CHOL    R430136  17.879  16.377   4.701 -0.0046  0.1320  0.0633
 2700CHOL    R530137  17.896  16.143   4.415 -0.1123  0.2006  0.0005
 2700CHOL    R630138  17.967  16.185   4.875 -0.1117  0.0387  0.0155
 2700CHOL    C130139  17.951  16.421   5.143 -0.0014 -0.0255  0.0793
 2700CHOL    C230140  17.938  16.741   5.488 -0.0279 -0.2223 -0.0348
 2701CHOL   ROH30141  23.920   5.724   5.632  0.0692  0.1261  0.0074
 2701CHOL    R130142  24.198   5.694   5.303 -0.0139 -0.0134 -0.0508
 2701CHOL    R230143  23.860   5.779   5.293  0.0068  0.0774  0.0103
 2701CHOL    R330144  24.235   5.797   4.889 -0.0800 -0.1029 -0.0794
 2701CHOL    R430145  23.904   5.903   5.012 -0.0232  0.0115 -0.0237
 2701CHOL    R530146  23.991   5.983   5.363  0.0793  0.0555 -0.0585
 2701CHOL    R630147  24.117   6.046   4.917 -0.0051 -0.0648 -0.0999
 2701CHOL    C130148  24.027   5.957   4.583 -0.1063 -0.1045 -0.0624
 2701CHOL    C230149  24.063   5.818   4.181  0.0439 -0.1002  0.1372
 2702CHOL   ROH30150  13.192  17.611   3.968  0.1124 -0.0525 -0.0126
 2702CHOL    R130151  13.059  17.643   4.377  0.0651 -0.0063 -0.0316
 2702CHOL    R230152  13.283  17.414   4.241  0.0820 -0.0207  0.0205
 2702CHOL    R330153  13.153  17.501   4.769  0.0207  0.0391 -0.0043
 2702CHOL    R430154  13.387  17.353   4.526  0.0495  0.0126  0.0396
 2702CHOL    R530155  13.407  17.630   4.281  0.0762 -0.0154  0.0100
 2702CHOL    R630156  13.427  17.523   4.736  0.0244  0.0369  0.0247
 2702CHOL    C130157  13.400  17.249   4.963 -0.0003  0.0629  0.0532
 2702CHOL    C230158  13.507  17.327   5.375 -0.0429  0.1530  0.0011
 2703CHOL   ROH30159  27.504  19.446   4.288 -0.1164 -0.0602 -0.1835
 2703CHOL    R130160  27.106  19.441   4.453 -0.0966 -0.0072 -0.1337
 2703CHOL    R230161  27.410  19.434   4.623 -0.0762 -0.0600 -0.1721
 2703CHOL    R330162  26.901  19.489   4.825 -0.0427  0.0079 -0.1057
 2703CHOL    R430163  27.263  19.523   4.881 -0.0304 -0.0489 -0.1498
 2703CHOL    R530164  27.362  19.673   4.558 -0.0485 -0.0501 -0.1560
 2703CHOL    R630165  27.057  19.700   4.911 -0.0002 -0.0193 -0.1164
 2703CHOL    C130166  26.968  19.543   5.219  0.0151 -0.0189 -0.1118
 2703CHOL    C230167  26.638  19.785   5.344  0.0952 -0.1007  0.1872
 2704CHOL   ROH30168   6.602   7.113   6.722 -0.1478 -0.1155 -0.0561
 2704CHOL    R130169   6.376   7.192   6.363 -0.0959  0.2123 -0.0200
 2704CHOL    R230170   6.662   7.354   6.476  0.0399 -0.0634  0.0391
 2704CHOL    R330171   6.404   7.406   5.993  0.0663  0.3406  0.0649
 2704CHOL    R430172   6.709   7.464   6.190  0.1207  0.0149  0.0818
 2704CHOL    R530173   6.733   7.138   6.366 -0.1368 -0.0779 -0.0494
 2704CHOL    R630174   6.669   7.341   5.950  0.0148  0.1430  0.0331
 2704CHOL    C130175   6.642   7.661   5.793  0.2688  0.2308  0.1624
 2704CHOL    C230176   6.425   7.924   5.490  0.2208  0.1200  0.0244
 2705CHOL   ROH30177  26.229   4.852   4.269 -0.2855 -0.1534 -0.1121
 2705CHOL    R130178  26.124   5.074   4.624  0.2853  0.0206 -0.0417
 2705CHOL    R230179  26.129   4.729   4.580 -0.2676  0.0041 -0.0430
 2705CHOL    R330180  26.056   5.018   5.043  0.4783  0.1336  0.0059
 2705CHOL    R430181  26.135   4.694   4.888 -0.1155  0.0026 -0.0453
 2705CHOL    R530182  26.366   4.806   4.621 -0.1171 -0.3523 -0.2014
 2705CHOL    R630183  26.266   4.841   5.076  0.2378 -0.1881 -0.1330
 2705CHOL    C130184  26.033   4.730   5.324  0.2286  0.1695  0.0244
 2705CHOL    C230185  26.048   4.807   5.766  0.3428  0.0293  0.1929
 2706CHOL   ROH30186  23.822   0.658   7.328  0.1273 -0.0036 -0.0137
 2706CHOL    R130187  23.548   0.912   7.113 -0.0602 -0.2555 -0.0774
 2706CHOL    R230188  23.883   0.849   7.042  0.0091  0.0303 -0.0167
 2706CHOL    R330189  23.511   1.122   6.742 -0.1809 -0.3127 -0.0982
 2706CHOL    R430190  23.838   0.952   6.754 -0.0329 -0.0290 -0.0315
 2706CHOL    R530191  23.747   0.655   6.955  0.1913 -0.0959 -0.0263
 2706CHOL    R630192  23.622   0.919   6.590  0.0220 -0.2287 -0.0656
 2706CHOL    C130193  23.717   1.211   6.407 -0.2007 -0.1569 -0.0698
 2706CHOL    C230194  23.578   1.530   6.138 -0.4561  0.0333  0.0449
 2707CHOL   ROH30195  27.260  12.988   5.157 -0.0089 -0.0572  0.0597
 2707CHOL    R130196  27.506  12.901   5.500 -0.0290 -0.0708  0.0707
 2707CHOL    R230197  27.306  13.180   5.444  0.0114 -0.0462  0.0492
 2707CHOL    R330198  27.573  13.031   5.902 -0.0200 -0.0558  0.0643
 2707CHOL    R430199  27.313  13.241   5.748  0.0129 -0.0287  0.0457
 2707CHOL    R530200  27.157  12.992   5.522 -0.0169 -0.0206  0.0571
 2707CHOL    R630201  27.305  13.068   5.959 -0.0162 -0.0148  0.0560
 2707CHOL    C130202  27.461  13.315   6.166  0.0137 -0.0242  0.0446
 2707CHOL    C230203  27.617  13.264   6.559 -0.2338 -0.1749 -0.1823
 2708CHOL   ROH30204   6.015   5.444   3.563 -0.1582  0.0996  0.0336
 2708CHOL    R130205   6.094   5.400   3.985 -0.0314  0.0803  0.0083
 2708CHOL    R230206   5.876   5.622   3.829 -0.1019  0.0662  0.0856
 2708CHOL    R330207   5.938   5.517   4.366  0.0650  0.0373  0.0613
 2708CHOL    R430208   5.730   5.663   4.099 -0.0287  0.0316  0.1308
 2708CHOL    R530209   5.762   5.397   3.843 -0.0725  0.0523  0.1039
 2708CHOL    R630210   5.673   5.481   4.294  0.0482  0.0121  0.1354
 2708CHOL    C130211   5.651   5.745   4.534  0.0873 -0.0063  0.1594
 2708CHOL    C230212   5.560   5.768   4.965 -0.1489 -0.0906  0.3906
 2709CHOL   ROH30213   5.316   7.729   3.551 -0.1567 -0.1245 -0.0165
 2709CHOL    R130214   5.366   7.953   3.916 -0.0766 -0.0972 -0.0440
 2709CHOL    R230215   5.208   7.645   3.872 -0.1195 -0.0827  0.0069
 2709CHOL    R330216   5.330   7.908   4.340 -0.0196 -0.0544 -0.0346
 2709CHOL    R430217   5.234   7.593   4.176 -0.0811 -0.0581  0.0080
 2709CHOL    R530218   5.457   7.605   3.881 -0.1229 -0.1113 -0.0260
 2709CHOL    R630219   5.439   7.654   4.346 -0.0489 -0.0669 -0.0277
 2709CHOL    C130220   5.213   7.645   4.622 -0.0095 -0.0150  0.0065
 2709CHOL    C230221   5.051   7.767   4.982 -0.2850 -0.0394 -0.1274
 2710CHOL   ROH30222  24.737  24.640   6.701  0.0690 -0.1634 -0.2468
 2710CHOL    R130223  24.594  24.575   6.299  0.1046 -0.1032 -0.2694
 2710CHOL    R230224  24.556  24.858   6.498 -0.0374 -0.1857 -0.1771
 2710CHOL    R330225  24.431  24.788   5.966  0.0020 -0.0744 -0.2012
 2710CHOL    R430226  24.491  25.023   6.243 -0.1163 -0.1343 -0.1240
 2710CHOL    R530227  24.787  24.863   6.398 -0.0384 -0.0387 -0.1741
 2710CHOL    R630228  24.600  25.006   5.994 -0.1054  0.0010 -0.1292
 2710CHOL    C130229  24.306  25.155   5.856 -0.1786 -0.0988 -0.0824
 2710CHOL    C230230  23.978  25.056   5.602 -0.1315  0.3560  0.0996
 2711CHOL   ROH30231   7.925  17.599   3.987 -0.0895  0.1501 -0.0746
 2711CHOL    R130232   8.176  17.358   4.242 -0.1930 -0.1861 -0.2834
 2711CHOL    R230233   7.900  17.550   4.331  0.0913  0.1335 -0.0629
 2711CHOL    R330234   8.188  17.194   4.637 -0.1138 -0.2549 -0.3142
 2711CHOL    R430235   7.879  17.389   4.595  0.0835  0.1213 -0.0710
 2711CHOL    R530236   7.816  17.332   4.235 -0.2357  0.2427 -0.0380
 2711CHOL    R630237   7.921  17.123   4.640 -0.2009  0.0619 -0.1395
 2711CHOL    C130238   7.985  17.191   4.985  0.1216 -0.0594 -0.1720
 2711CHOL    C230239   8.072  16.981   5.382  0.1392 -0.0364 -0.0312
 2712CHOL   ROH30240  13.455   3.393   7.428 -0.0760 -0.1185  0.1220
 2712CHOL    R130241  13.437   3.209   7.039  0.0235 -0.0698  0.0940
 2712CHOL    R230242  13.395   3.545   7.120 -0.0150 -0.0827  0.1276
 2712CHOL    R330243  13.435   3.311   6.623  0.1118 -0.0169  0.1061
 2712CHOL    R430244  13.449   3.619   6.824  0.0478 -0.0416  0.1490
 2712CHOL    R530245  13.643   3.496   7.114 -0.0107 -0.0671  0.1776
 2712CHOL    R630246  13.626   3.510   6.647  0.0946 -0.0084  0.1750
 2712CHOL    C130247  13.427   3.629   6.375  0.1491  0.0143  0.1448
 2712CHOL    C230248  13.678   3.606   6.020  0.0506  0.1381  0.1159
 2713CHOL   ROH30249  12.424  24.636   7.319  0.0303  0.0169 -0.1356
 2713CHOL    R130250  12.347  24.943   7.025  0.0325  0.0035 -0.1502
 2713CHOL    R230251  12.514  24.640   6.982 -0.0427 -0.0374 -0.1562
 2713CHOL    R330252  12.359  25.008   6.602 -0.0461 -0.0424 -0.1598
 2713CHOL    R430253  12.472  24.665   6.676 -0.1046 -0.0599 -0.1496
 2713CHOL    R530254  12.266  24.594   6.975 -0.0545  0.0159 -0.0969
 2713CHOL    R630255  12.256  24.759   6.538 -0.1146 -0.0268 -0.1117
 2713CHOL    C130256  12.467  24.828   6.257 -0.1609 -0.1016 -0.1653
 2713CHOL    C230257  12.632  25.124   5.977  0.2503 -0.1869 -0.1397
 2714CHOL   ROH30258  20.722  21.052   7.010  0.0975  0.0189 -0.0895
 2714CHOL    R130259  20.469  21.033   6.661  0.0388  0.2116 -0.0589
 2714CHOL    R230260  20.761  21.216   6.704  0.1026  0.1066 -0.0423
 2714CHOL    R330261  20.466  21.136   6.246  0.0090  0.3480 -0.0251
 2714CHOL    R430262  20.785  21.242   6.396  0.0647  0.1996 -0.0376
 2714CHOL    R530263  20.825  20.977   6.652  0.0207  0.1033 -0.1298
 2714CHOL    R630264  20.728  21.059   6.202 -0.0216  0.2804 -0.0893
 2714CHOL    C130265  20.687  21.324   5.966  0.0256  0.3709  0.0034
 2714CHOL    C230266  20.469  21.451   5.613  0.1145  0.4004  0.0290
 2715CHOL   ROH30267   2.404  16.401   4.281  0.0240  0.1193  0.0564
 2715CHOL    R130268   2.536  16.088   4.547  0.0044  0.0143 -0.0563
 2715CHOL    R230269   2.631  16.423   4.545  0.0129  0.0134  0.0753
 2715CHOL    R330270   2.745  16.033   4.916 -0.0132 -0.1313 -0.0675
 2715CHOL    R430271   2.733  16.392   4.836 -0.0007 -0.0998  0.0684
 2715CHOL    R530272   2.407  16.406   4.661  0.0073 -0.0254  0.0592
 2715CHOL    R630273   2.627  16.248   5.042 -0.0135 -0.1760  0.0096
 2715CHOL    C130274   2.948  16.237   5.198 -0.0206 -0.2433  0.0195
 2715CHOL    C230275   3.172  16.162   5.554 -0.2113  0.0481 -0.0369
 2716CHOL   ROH30276  26.508  24.442   7.052 -0.1264  0.0785  0.0780
 2716CHOL    R130277  26.520  24.322   6.638  0.0429  0.1399  0.0643
 2716CHOL    R230278  26.459  24.639   6.768 -0.1183  0.0992  0.0908
 2716CHOL    R330279  26.537  24.488   6.244  0.0954  0.2007  0.0921
 2716CHOL    R430280  26.527  24.761   6.491 -0.0834  0.1634  0.1275
 2716CHOL    R530281  26.709  24.599   6.770 -0.1031  0.1951  0.1590
 2716CHOL    R630282  26.718  24.687   6.311 -0.0007  0.2618  0.1734
 2716CHOL    C130283  26.530  24.841   6.049  0.0170  0.2254  0.1391
 2716CHOL    C230284  26.512  24.971   5.607 -0.0557 -0.0397  0.1011
 2717CHOL   ROH30285   2.910  13.451   4.132  0.2318 -0.2849  0.0261
 2717CHOL    R130286   2.580  13.230   4.300 -0.0728  0.1558  0.0270
 2717CHOL    R230287   2.868  13.341   4.460  0.1634 -0.3698 -0.0106
 2717CHOL    R330288   2.417  13.113   4.678 -0.1390  0.2409  0.0250
 2717CHOL    R430289   2.726  13.306   4.733  0.1931 -0.2671  0.0185
 2717CHOL    R530290   2.708  13.536   4.443  0.4610 -0.1031  0.1283
 2717CHOL    R630291   2.466  13.357   4.800  0.2873  0.1161  0.1224
 2717CHOL    C130292   2.493  13.128   5.074  0.0156 -0.0567  0.0098
 2717CHOL    C230293   2.330  12.854   5.357  0.2841  0.3671  0.0704
 2718CHOL   ROH30294  23.199  27.213   6.763  0.1250 -0.1266  0.0998
 2718CHOL    R130295  23.248  26.989   6.398  0.0131 -0.0372  0.0293
 2718CHOL    R230296  23.086  27.293   6.443  0.0266 -0.0481  0.1538
 2718CHOL    R330297  23.206  27.031   5.974 -0.1171  0.0668  0.0520
 2718CHOL    R430298  23.107  27.346   6.139 -0.0669  0.0266  0.1597
 2718CHOL    R530299  23.334  27.338   6.431  0.0230 -0.0450  0.0885
 2718CHOL    R630300  23.311  27.287   5.967 -0.1195  0.0687  0.0825
 2718CHOL    C130301  23.081  27.292   5.693 -0.2037  0.1359  0.1539
 2718CHOL    C230302  23.217  27.248   5.259 -0.0045  0.2347  0.1955
 2719CHOL   ROH30303  27.203  24.576   5.021  0.1546  0.0612 -0.0171
 2719CHOL    R130304  27.262  24.764   5.405  0.2001 -0.0542  0.0327
 2719CHOL    R230305  27.055  24.495   5.326  0.0463  0.0902 -0.0614
 2719CHOL    R330306  27.183  24.701   5.821  0.0829 -0.0910  0.0053
 2719CHOL    R430307  27.045  24.420   5.627 -0.0570  0.0342 -0.0785
 2719CHOL    R530308  27.291  24.408   5.350 -0.0118 -0.0623 -0.0346
 2719CHOL    R630309  27.243  24.431   5.815 -0.0845 -0.1282 -0.0387
 2719CHOL    C130310  26.996  24.448   6.073 -0.1232 -0.0271 -0.0818
 2719CHOL    C230311  26.931  24.410   6.505  0.0206 -0.0180  0.2311
 2720CHOL   ROH30312  12.799   5.844   7.475 -0.1192  0.0512  0.0189
 2720CHOL    R130313  12.813   6.046   7.094  0.0246  0.0243  0.0095
 2720CHOL    R230314  12.934   5.730   7.175 -0.1649 -0.0430  0.0338
 2720CHOL    R330315  12.893   5.970   6.681  0.0085 -0.0432  0.0188
 2720CHOL    R430316  12.938   5.659   6.873 -0.1856 -0.0611  0.0377
 2720CHOL    R530317  12.685   5.712   7.138 -0.1740  0.1002  0.0179
 2720CHOL    R630318  12.761   5.727   6.677 -0.1336  0.0328  0.0223
 2720CHOL    C130319  13.016   5.679   6.431 -0.1439 -0.1285  0.0419
 2720CHOL    C230320  12.867   5.693   6.026 -0.1382 -0.4006 -0.1088
 2721CHOL   ROH30321  24.500   8.817   4.282  0.1205 -0.0529  0.0501
 2721CHOL    R130322  24.632   9.032   4.632  0.0226  0.0962 -0.0035
 2721CHOL    R230323  24.311   8.921   4.556  0.0627 -0.0228 -0.0009
 2721CHOL    R330324  24.500   9.140   5.024 -0.0482  0.1801 -0.0500
 2721CHOL    R430325  24.235   8.950   4.855  0.0247  0.0482 -0.0171
 2721CHOL    R530326  24.442   8.725   4.646  0.1122  0.0438  0.0734
 2721CHOL    R630327  24.383   8.895   5.077  0.0192  0.1618  0.0150
 2721CHOL    C130328  24.179   9.119   5.267 -0.0661  0.1612 -0.0751
 2721CHOL    C230329  24.262   9.338   5.641  0.1420 -0.1615 -0.0754
 2722CHOL   ROH30330   6.537  20.315   7.570 -0.1393  0.0052 -0.1063
 2722CHOL    R130331   6.759  20.220   7.213 -0.2306 -0.1454 -0.1239
 2722CHOL    R230332   6.450  20.377   7.238 -0.1633 -0.0146 -0.1038
 2722CHOL    R330333   6.767  20.307   6.794 -0.2572 -0.2187 -0.1398
 2722CHOL    R430334   6.485  20.485   6.950 -0.1620 -0.0772 -0.1271
 2722CHOL    R530335   6.628  20.549   7.285 -0.0858 -0.0794 -0.1591
 2722CHOL    R630336   6.710  20.576   6.826 -0.1427 -0.1897 -0.1760
 2722CHOL    C130337   6.563  20.504   6.508 -0.2195 -0.1829 -0.1422
 2722CHOL    C230338   6.595  20.502   6.066 -0.1709 -0.3253  0.0682
 2723CHOL   ROH30339   5.863  15.214   6.571 -0.1345 -0.2637  0.0429
 2723CHOL    R130340   5.696  15.265   6.176  0.0265 -0.2329 -0.0218
 2723CHOL    R230341   5.854  15.502   6.376 -0.1543 -0.2201  0.1080
 2723CHOL    R330342   5.694  15.542   5.850  0.0711 -0.1557  0.0432
 2723CHOL    R430343   5.899  15.678   6.124 -0.1052 -0.1427  0.1704
 2723CHOL    R530344   6.032  15.363   6.265 -0.0502 -0.1260  0.1555
 2723CHOL    R630345   5.963  15.602   5.870  0.0402 -0.0577  0.1808
 2723CHOL    C130346   5.826  15.908   5.745 -0.0188 -0.0797  0.1916
 2723CHOL    C230347   5.685  16.037   5.336 -0.2719  0.0991 -0.1700
 2724CHOL   ROH30348   3.792   7.996   7.141 -0.0416 -0.0766  0.0340
 2724CHOL    R130349   3.862   8.264   6.811 -0.1143 -0.0068  0.0747
 2724CHOL    R230350   3.775   7.927   6.800 -0.0300 -0.0272  0.0234
 2724CHOL    R330351   3.808   8.290   6.388 -0.1280  0.0458  0.0797
 2724CHOL    R430352   3.685   7.964   6.506 -0.0441 -0.0039  0.0307
 2724CHOL    R530353   3.566   8.060   6.843 -0.0629 -0.0866  0.0479
 2724CHOL    R630354   3.556   8.175   6.390 -0.0991 -0.0179  0.0659
 2724CHOL    C130355   3.682   8.075   6.070 -0.0792  0.0638  0.0481
 2724CHOL    C230356   3.744   8.292   5.705  0.0530 -0.1985  0.0712
 2725CHOL   ROH30357   6.709  12.181   5.751 -0.0489 -0.0140 -0.0790
 2725CHOL    R130358   7.081  12.086   5.554 -0.0176 -0.0157 -0.0191
 2725CHOL    R230359   6.863  12.349   5.487 -0.0480 -0.0638 -0.1104
 2725CHOL    R330360   7.367  12.256   5.285 -0.0163 -0.0489 -0.0387
 2725CHOL    R430361   7.092  12.495   5.338 -0.0545 -0.0725 -0.1288
 2725CHOL    R530362   7.003  12.413   5.687 -0.0752  0.0098 -0.1145
 2725CHOL    R630363   7.358  12.508   5.398 -0.0619 -0.0192 -0.1077
 2725CHOL    C130364   7.431  12.581   5.056 -0.0406 -0.1015 -0.1209
 2725CHOL    C230365   7.820  12.721   4.892  0.2188  0.1155  0.0364
 2726CHOL   ROH30366  26.395   8.549   7.350  0.0530 -0.1914 -0.0253
 2726CHOL    R130367  26.470   8.348   6.976 -0.0223 -0.1040 -0.0879
 2726CHOL    R230368  26.217   8.575   7.051 -0.0049 -0.1180  0.0151
 2726CHOL    R330369  26.358   8.361   6.563 -0.1023 -0.0047 -0.0633
 2726CHOL    R430370  26.176   8.623   6.747 -0.0632 -0.0455  0.0341
 2726CHOL    R530371  26.429   8.706   7.006 -0.0119 -0.1102  0.0047
 2726CHOL    R630372  26.362   8.638   6.548 -0.1017 -0.0010  0.0012
 2726CHOL    C130373  26.110   8.552   6.309 -0.1494  0.0591  0.0296
 2726CHOL    C230374  26.070   8.584   5.857  0.0029  0.3510 -0.1591
 2727CHOL   ROH30375  16.519  21.523   4.561 -0.1430 -0.1143 -0.1605
 2727CHOL    R130376  16.554  21.142   4.759  0.0208 -0.0837 -0.1293
 2727CHOL    R230377  16.550  21.458   4.902 -0.2188 -0.0771 -0.1462
 2727CHOL    R330378  16.534  20.966   5.148 -0.0050 -0.0757 -0.1270
 2727CHOL    R430379  16.481  21.330   5.175 -0.2335 -0.1049 -0.1630
 2727CHOL    R530380  16.312  21.393   4.852 -0.1633 -0.2238 -0.2234
 2727CHOL    R630381  16.317  21.118   5.230 -0.1250 -0.2012 -0.2076
 2727CHOL    C130382  16.492  21.064   5.537 -0.1950 -0.0796 -0.1456
 2727CHOL    C230383  16.384  20.792   5.872 -0.0061 -0.3579  0.0490
 2728CHOL   ROH30384  25.595   0.007   7.185  0.1014 -0.2867 -0.0166
 2728CHOL    R130385  25.627   0.306   6.876 -0.1486 -0.2093  0.0294
 2728CHOL    R230386  25.719  -0.030   6.861  0.1301 -0.1334 -0.0237
 2728CHOL    R330387  25.700   0.342   6.456 -0.1815 -0.0834  0.0343
 2728CHOL    R430388  25.717  -0.013   6.552  0.1140 -0.0867 -0.0211
 2728CHOL    R530389  25.469  -0.016   6.827  0.1163 -0.3351 -0.0190
 2728CHOL    R630390  25.546   0.122   6.387 -0.0007 -0.2016  0.0015
 2728CHOL    C130391  25.796   0.123   6.131 -0.0016  0.0454 -0.0009
 2728CHOL    C230392  25.849   0.103   5.694 -0.1770  0.4321 -0.1015
 2729CHOL   ROH30393   1.343  19.482   4.257  0.0289 -0.0815 -0.0082
 2729CHOL    R130394   1.160  19.317   4.611  0.0323 -0.1664 -0.0459
 2729CHOL    R230395   1.488  19.425   4.569 -0.0185  0.0219  0.0332
 2729CHOL    R330396   1.230  19.271   5.030 -0.0497 -0.0998 -0.0245
 2729CHOL    R430397   1.517  19.443   4.877 -0.1087  0.0581  0.0401
 2729CHOL    R530398   1.343  19.628   4.608 -0.1471 -0.0592 -0.0165
 2729CHOL    R630399   1.336  19.524   5.064 -0.2054 -0.0357 -0.0119
 2729CHOL    C130400   1.510  19.336   5.313 -0.1605  0.0803  0.0447
 2729CHOL    C230401   1.537  19.452   5.756  0.2611 -0.4545  0.0054
 2730CHOL   ROH30402   0.685  21.732   7.607  0.1743  0.0689  0.0053
 2730CHOL    R130403   0.530  21.949   7.268  0.0600 -0.0159  0.0026
 2730CHOL    R230404   0.797  21.726   7.277  0.1285  0.0650 -0.0103
 2730CHOL    R330405   0.555  21.960   6.842 -0.0048 -0.0570 -0.0024
 2730CHOL    R430406   0.776  21.695   6.969  0.0936  0.0237 -0.0037
 2730CHOL    R530407   0.584  21.592   7.269  0.1675 -0.0002  0.0357
 2730CHOL    R630408   0.553  21.685   6.812  0.0736 -0.0613  0.0293
 2730CHOL    C130409   0.749  21.791   6.531  0.0016 -0.0342 -0.0109
 2730CHOL    C230410   0.608  22.014   6.176 -0.0335  0.1964  0.4905
 2731CHOL   ROH30411   8.194  11.688   6.581 -0.1241  0.1496  0.0173
 2731CHOL    R130412   7.971  11.609   6.220 -0.0756 -0.1163  0.0434
 2731CHOL    R230413   8.301  11.718   6.250 -0.1380  0.0872  0.0071
 2731CHOL    R330414   8.029  11.557   5.799 -0.0410 -0.2416  0.0633
 2731CHOL    R430415   8.353  11.627   5.959 -0.0822  0.0076  0.0416
 2731CHOL    R530416   8.297  11.468   6.289  0.0068  0.0982  0.1011
 2731CHOL    R630417   8.260  11.407   5.826  0.0467 -0.0976  0.1231
 2731CHOL    C130418   8.314  11.573   5.514 -0.0468 -0.1831  0.0607
 2731CHOL    C230419   8.256  11.472   5.100 -0.0728  0.3790  0.0339
 2732CHOL   ROH30420   5.535   2.573   3.926 -0.0113  0.2025  0.0402
 2732CHOL    R130421   5.877   2.389   4.113 -0.0580  0.1120  0.0369
 2732CHOL    R230422   5.740   2.702   4.178 -0.0142  0.1215  0.0844
 2732CHOL    R330423   6.136   2.434   4.451 -0.0823  0.0058  0.0702
 2732CHOL    R430424   5.888   2.707   4.450 -0.0389  0.0455  0.0994
 2732CHOL    R530425   5.601   2.529   4.298 -0.0530  0.1203  0.0381
 2732CHOL    R630426   5.933   2.503   4.626 -0.0878  0.0042  0.0644
 2732CHOL    C130427   6.212   2.681   4.760 -0.0718 -0.0659  0.1251
 2732CHOL    C230428   6.646   2.628   4.854 -0.1461 -0.1942  0.2259
 2733CHOL   ROH30429  23.137  23.444   7.107 -0.0599 -0.0224  0.0417
 2733CHOL    R130430  23.235  23.307   6.710 -0.0419  0.0665  0.0154
 2733CHOL    R230431  23.117  23.620   6.807 -0.0291  0.0506  0.0822
 2733CHOL    R330432  23.301  23.456   6.315 -0.0067  0.1568  0.0551
 2733CHOL    R430433  23.217  23.737   6.538 -0.0042  0.1088  0.1166
 2733CHOL    R530434  23.365  23.612   6.854 -0.0327  0.0244  0.0968
 2733CHOL    R630435  23.444  23.678   6.398  0.0015  0.1284  0.1177
 2733CHOL    C130436  23.288  23.796   6.098  0.0285  0.2094  0.1352
 2733CHOL    C230437  23.207  23.890   5.682 -0.4906 -0.1106  0.0562
 2734CHOL   ROH30438  13.722   1.572   4.499 -0.0605  0.2061  0.1568
 2734CHOL    R130439  14.033   1.408   4.750 -0.1628  0.0355  0.1738
 2734CHOL    R230440  13.876   1.717   4.776  0.0916  0.1744  0.0899
 2734CHOL    R330441  14.227   1.476   5.124 -0.0625  0.0026  0.1279
 2734CHOL    R430442  13.975   1.738   5.069  0.1431  0.1920  0.0715
 2734CHOL    R530443  13.724   1.544   4.878 -0.0391  0.3311  0.1663
 2734CHOL    R630444  13.995   1.543   5.259  0.0061  0.2375  0.1341
 2734CHOL    C130445  14.241   1.737   5.431  0.1863  0.0963  0.0398
 2734CHOL    C230446  14.523   1.658   5.785  0.1173  0.0611  0.0667
 2735CHOL   ROH30447  13.873  13.148   7.084  0.0873  0.0951  0.2240
 2735CHOL    R130448  13.788  13.477   6.818  0.0520  0.0803  0.2169
 2735CHOL    R230449  13.970  13.188   6.751  0.0678  0.0900  0.2177
 2735CHOL    R330450  13.806  13.581   6.403  0.0241  0.0671  0.2123
 2735CHOL    R430451  13.934  13.239   6.448  0.0490  0.0771  0.2177
 2735CHOL    R530452  13.725  13.131   6.734  0.0707  0.0732  0.2321
 2735CHOL    R630453  13.716  13.335   6.314  0.0359  0.0581  0.2254
 2735CHOL    C130454  13.929  13.440   6.046  0.0155  0.0629  0.2110
 2735CHOL    C230455  14.057  13.642   5.724  0.1250 -0.0439  0.2192
 2736CHOL   ROH30456   0.390  10.095   7.272  0.0173  0.0237  0.0390
 2736CHOL    R130457   0.082  10.110   6.972  0.0097  0.0038  0.0459
 2736CHOL    R230458   0.411  10.219   6.947 -0.0283  0.1273  0.0749
 2736CHOL    R330459   0.029  10.177   6.552 -0.0169  0.1092  0.0658
 2736CHOL    R430460   0.386  10.213   6.638 -0.0287  0.2093  0.0733
 2736CHOL    R530461   0.409   9.968   6.915  0.0595  0.1355  0.0011
 2736CHOL    R630462   0.255  10.035   6.478  0.0329  0.2101  0.0217
 2736CHOL    C130463   0.233  10.282   6.221 -0.0559  0.2790  0.0945
 2736CHOL    C230464   0.076  10.312   5.813  0.1307  0.1142 -0.1717
 2737CHOL   ROH30465  23.094  26.269   6.820 -0.1952 -0.0783 -0.1961
 2737CHOL    R130466  23.335  26.527   6.572 -0.2021  0.0127 -0.1091
 2737CHOL    R230467  23.101  26.289   6.472 -0.0411 -0.1115 -0.1953
 2737CHOL    R330468  23.368  26.663   6.168 -0.0774 -0.0140 -0.1083
 2737CHOL    R430469  23.088  26.426   6.194  0.0236 -0.1473 -0.2164
 2737CHOL    R530470  22.977  26.498   6.540 -0.1744 -0.1640 -0.2752
 2737CHOL    R630471  23.095  26.691   6.131 -0.0753 -0.1497 -0.2399
 2737CHOL    C130472  23.208  26.609   5.802  0.1198 -0.1305 -0.1793
 2737CHOL    C230473  23.291  26.823   5.447  0.1067 -0.1468 -0.2611
 2738CHOL   ROH30474  24.049   8.023   7.268  0.1028 -0.0295 -0.0657
 2738CHOL    R130475  24.035   8.306   6.942 -0.0201 -0.0545 -0.0828
 2738CHOL    R230476  24.119   7.968   6.931  0.0154 -0.0458 -0.0816
 2738CHOL    R330477  24.041   8.320   6.515 -0.1407 -0.0848 -0.0856
 2738CHOL    R430478  24.068   7.970   6.625 -0.0698 -0.0737 -0.0677
 2738CHOL    R530479  23.868   7.986   6.936  0.0146 -0.0742 -0.0128
 2738CHOL    R630480  23.875   8.100   6.483 -0.1245 -0.1060 -0.0237
 2738CHOL    C130481  24.081   8.083   6.191 -0.2037 -0.1035 -0.0799
 2738CHOL    C230482  24.237   8.109   5.794 -0.0046 -0.0775 -0.4560
 2739CHOL   ROH30483  26.227   3.004   4.490  0.0011  0.1384 -0.0281
 2739CHOL    R130484  26.214   3.266   4.832  0.0788  0.0542  0.0399
 2739CHOL    R230485  26.288   2.926   4.824 -0.0344  0.0309 -0.0461
 2739CHOL    R330486  26.328   3.281   5.243  0.0718 -0.0911  0.0475
 2739CHOL    R430487  26.420   2.953   5.103 -0.0336 -0.0858 -0.0349
 2739CHOL    R530488  26.495   3.053   4.754  0.0101 -0.0199 -0.0070
 2739CHOL    R630489  26.572   3.156   5.204  0.0316 -0.1624  0.0226
 2739CHOL    C130490  26.488   3.054   5.536 -0.0124 -0.2207 -0.0064
 2739CHOL    C230491  26.711   3.096   5.916  0.1322  0.1174  0.0248
 2740CHOL   ROH30492  23.183  20.605   3.868  0.2011  0.0071 -0.0180
 2740CHOL    R130493  23.501  20.426   4.099  0.1443 -0.0316  0.0304
 2740CHOL    R230494  23.258  20.651   4.206  0.1673  0.0128 -0.0113
 2740CHOL    R330495  23.627  20.372   4.504  0.0862 -0.0305  0.0487
 2740CHOL    R430496  23.315  20.568   4.499  0.1183  0.0191  0.0002
 2740CHOL    R530497  23.154  20.421   4.199  0.1313  0.0291 -0.0117
 2740CHOL    R630498  23.372  20.321   4.600  0.0663  0.0154  0.0204
 2740CHOL    C130499  23.531  20.475   4.882  0.0566  0.0048  0.0316
 2740CHOL    C230500  23.867  20.592   5.113  0.2824  0.0983 -0.1605
 2741CHOL   ROH30501  11.443   9.375   4.401  0.1366 -0.0735  0.1037
 2741CHOL    R130502  11.562   9.389   4.816  0.1203  0.1624  0.1016
 2741CHOL    R230503  11.261   9.493   4.674  0.0746 -0.0395  0.0479
 2741CHOL    R330504  11.397   9.450   5.206  0.0820  0.2556  0.0712
 2741CHOL    R430505  11.130   9.483   4.955  0.0722  0.0215  0.0491
 2741CHOL    R530506  11.252   9.242   4.702  0.1912 -0.0327  0.1568
 2741CHOL    R630507  11.168   9.303   5.157  0.1514  0.1265  0.1286
 2741CHOL    C130508  11.053   9.547   5.393  0.0316  0.1765  0.0199
 2741CHOL    C230509  10.955   9.517   5.828  0.2205 -0.1433  0.0870
 2742CHOL   ROH30510  15.749   6.886   6.510  0.0835 -0.0237 -0.0981
 2742CHOL    R130511  15.875   7.013   6.117  0.0610 -0.0877 -0.1263
 2742CHOL    R230512  15.638   6.771   6.199  0.0152 -0.0254 -0.0734
 2742CHOL    R330513  15.761   6.983   5.706 -0.0011 -0.0976 -0.1085
 2742CHOL    R430514  15.523   6.792   5.912 -0.0182 -0.0238 -0.0598
 2742CHOL    R530515  15.529   6.998   6.221  0.0710  0.0021 -0.0786
 2742CHOL    R630516  15.491   7.013   5.755  0.0122 -0.0301 -0.0749
 2742CHOL    C130517  15.492   6.805   5.464 -0.0753 -0.0563 -0.0569
 2742CHOL    C230518  15.488   6.631   5.062 -0.0059  0.1583  0.2393
 2743CHOL   ROH30519  25.948  21.341   6.752 -0.1637 -0.1337 -0.0760
 2743CHOL    R130520  25.623  21.268   6.477 -0.1041  0.0008 -0.1831
 2743CHOL    R230521  25.944  21.382   6.406 -0.0402 -0.1084 -0.0747
 2743CHOL    R330522  25.545  21.230   6.058  0.0134  0.0575 -0.2108
 2743CHOL    R430523  25.902  21.301   6.109  0.0238 -0.0731 -0.0935
 2743CHOL    R530524  25.955  21.132   6.434 -0.1385 -0.1145 -0.0881
 2743CHOL    R630525  25.774  21.084   6.006 -0.0216 -0.0206 -0.1485
 2743CHOL    C130526  25.725  21.260   5.699  0.1375  0.0185 -0.1526
 2743CHOL    C230527  25.443  21.248   5.347 -0.2911 -0.0750 -0.0212
 2744CHOL   ROH30528  12.093  15.606   7.485  0.0891 -0.0402  0.0644
 2744CHOL    R130529  12.271  15.853   7.180  0.0111  0.0561  0.0964
 2744CHOL    R230530  12.068  15.573   7.139  0.0634  0.0233  0.0601
 2744CHOL    R330531  12.249  15.929   6.759 -0.0432  0.1348  0.1132
 2744CHOL    R430532  12.011  15.662   6.848  0.0185  0.0695  0.0830
 2744CHOL    R530533  11.919  15.770   7.190  0.0285 -0.0164  0.1130
 2744CHOL    R630534  11.973  15.914   6.748 -0.0413  0.0818  0.1361
 2744CHOL    C130535  12.068  15.798   6.423 -0.0483  0.1651  0.1042
 2744CHOL    C230536  12.346  15.818   6.082  0.2677 -0.0154 -0.0489
 2745CHOL   ROH30537   9.598   9.158   3.792  0.0930 -0.0948  0.0043
 2745CHOL    R130538   9.916   9.150   4.084  0.0489 -0.0128  0.0548
 2745CHOL    R230539   9.578   9.086   4.133  0.0562 -0.0934  0.0024
 2745CHOL    R330540   9.997   9.020   4.483  0.0171  0.0142  0.0702
 2745CHOL    R430541   9.648   8.943   4.399  0.0487 -0.0718  0.0161
 2745CHOL    R530542   9.683   8.879   4.036  0.1217 -0.0700  0.0228
 2745CHOL    R630543   9.860   8.781   4.458  0.0784 -0.0196  0.0526
 2745CHOL    C130544   9.819   8.856   4.805  0.0056 -0.0230  0.0449
 2745CHOL    C230545   9.990   8.706   5.199 -0.1640  0.1020 -0.1788
 2746CHOL   ROH30546  23.921  15.629   7.041  0.1309 -0.1315 -0.0379
 2746CHOL    R130547  23.774  15.927   6.766  0.1055 -0.0970  0.0127
 2746CHOL    R230548  24.025  15.692   6.714  0.0866 -0.1043 -0.0469
 2746CHOL    R330549  23.789  16.033   6.352  0.0507 -0.0568  0.0208
 2746CHOL    R430550  23.994  15.733   6.408  0.0443 -0.0726 -0.0386
 2746CHOL    R530551  23.802  15.577   6.684  0.0764 -0.0904 -0.0261
 2746CHOL    R630552  23.768  15.773   6.261  0.0249 -0.0469 -0.0019
 2746CHOL    C130553  23.964  15.927   6.004 -0.0049 -0.0312 -0.0151
 2746CHOL    C230554  24.020  16.227   5.712  0.0787 -0.0742  0.1008
 2747CHOL   ROH30555  21.310  11.751   4.315  0.0768 -0.2547 -0.1010
 2747CHOL    R130556  20.966  11.700   4.570  0.1323  0.0424  0.0363
 2747CHOL    R230557  21.273  11.538   4.589  0.0345 -0.1524 -0.0265
 2747CHOL    R330558  20.853  11.525   4.944  0.1493  0.2235  0.1274
 2747CHOL    R430559  21.209  11.459   4.881  0.0858 -0.0263  0.0194
 2747CHOL    R530560  21.299  11.765   4.694  0.2202 -0.1372 -0.1006
 2747CHOL    R630561  21.083  11.603   5.076  0.2476  0.1128  0.0235
 2747CHOL    C130562  20.998  11.299   5.244  0.1088  0.2156  0.1411
 2747CHOL    C230563  20.767  11.078   5.526  0.3625  0.1561 -0.1071
 2748PAPS   CNO30564  18.990   8.662   2.536 -0.1242  0.0651 -0.0902
 2748PAPS   PO430565  19.042   8.536   2.885  0.2416  0.2211 -0.2200
 2748PAPS   GL130566  19.029   8.674   3.313  0.3146  0.2058 -0.4360
 2748PAPS   GL230567  19.290   8.481   3.367  0.2468  0.1971 -0.0069
 2748PAPS   C1A30568  18.923   8.811   3.664  0.1763  0.0259  0.1374
 2748PAPS   D2A30569  18.747   8.656   3.978  0.0305  0.1750  0.1480
 2748PAPS   D3A30570  18.969   8.379   4.212 -0.3398 -0.5483 -0.0125
 2748PAPS   D4A30571  18.997   8.032   4.550 -0.2252 -0.2485  0.2745
 2748PAPS   C5A30572  19.141   7.980   5.005  0.2474  0.3697 -0.0216
 2748PAPS   C1B30573  19.290   7.966   3.400 -0.0647 -0.0651 -0.0765
 2748PAPS   C2B30574  19.255   7.460   3.257  0.1700 -0.0066  0.0512
 2748PAPS   C3B30575  19.323   7.050   3.508  0.1320  0.2472 -0.1352
 2748PAPS   C4B30576  19.375   6.672   3.830 -0.1918 -0.1306  0.2266
 2749PAPS   CNO30577  24.912  13.436   3.813  0.0224 -0.3047 -0.1989
 2749PAPS   PO430578  24.952  13.637   4.127 -0.0748  0.0384  0.2494
 2749PAPS   GL130579  24.595  13.527   4.521 -0.3286 -0.1123  0.1493
 2749PAPS   GL230580  24.718  13.885   4.520  0.3770  0.2986 -0.1845
 2749PAPS   C1A30581  24.235  13.518   4.587  0.2432  0.0648 -0.4693
 2749PAPS   D2A30582  24.101  13.808   4.815 -0.0734  0.0604 -0.0590
 2749PAPS   D3A30583  24.025  13.548   5.139 -0.2988  0.1141  0.2581
 2749PAPS   D4A30584  24.214  13.300   5.448 -0.3020  0.0424  0.3430
 2749PAPS   C5A30585  23.991  13.387   5.841  0.4462 -0.0867  0.1287
 2749PAPS   C1B30586  24.615  13.993   4.919 -0.1123 -0.4603 -0.4147
 2749PAPS   C2B30587  24.174  14.111   5.216  0.0554  0.0248 -0.0221
 2749PAPS   C3B30588  23.879  14.273   5.539  0.3177 -0.3976 -0.1993
 2749PAPS   C4B30589  23.458  14.562   5.572 -0.0701  0.0959 -0.1250
 2750PAPS   CNO30590  16.088  20.658   3.373 -0.0079 -0.1107  0.0088
 2750PAPS   PO430591  16.391  20.639   3.553 -0.0109  0.1023 -0.1967
 2750PAPS   GL130592  16.317  20.380   3.882  0.0046 -0.2360 -0.0135
 2750PAPS   GL230593  16.228  20.162   3.729 -0.1780  0.1401  0.1335
 2750PAPS   C1A30594  16.478  20.524   4.202  0.0669 -0.0609  0.2443
 2750PAPS   D2A30595  16.545  20.293   4.499 -0.0324  0.0484  0.0306
 2750PAPS   D3A30596  16.510  20.613   4.787  0.0546  0.0360 -0.1454
 2750PAPS   D4A30597  16.378  20.462   5.241  0.1232 -0.1294 -0.1052
 2750PAPS   C5A30598  16.749  20.224   5.516 -0.0192 -0.2203  0.0943
 2750PAPS   C1B30599  16.076  19.907   4.030 -0.0858 -0.1985 -0.1703
 2750PAPS   C2B30600  15.939  19.818   4.519 -0.1284  0.4286  0.0923
 2750PAPS   C3B30601  15.914  19.519   4.897 -0.0919 -0.1283 -0.0571
 2750PAPS   C4B30602  16.155  19.484   5.296  0.1285 -0.1285  0.1241
 2751PAPS   CNO30603   9.837  10.456   3.093  0.3232  0.3016  0.2845
 2751PAPS   PO430604   9.501  10.323   3.299 -0.3294 -0.2054 -0.0772
 2751PAPS   GL130605   9.346  10.422   3.705  0.3150 -0.3670  0.0990
 2751PAPS   GL230606   9.647  10.539   3.769 -0.0749  0.5059  0.2942
 2751PAPS   C1A30607   9.079  10.520   3.961 -0.1395  0.0140  0.2501
 2751PAPS   D2A30608   8.935  10.641   4.275 -0.2291 -0.1316  0.1239
 2751PAPS   D3A30609   8.697  10.607   4.633  0.5049  0.1017 -0.1930
 2751PAPS   D4A30610   8.830  10.810   4.955 -0.1720  0.1972  0.0360
 2751PAPS   C5A30611   8.371  10.638   5.053 -0.2631 -0.0883 -0.1091
 2751PAPS   C1B30612   9.694  10.459   4.230  0.2734  0.0659  0.1976
 2751PAPS   C2B30613   9.848  10.535   4.796  0.0333  0.2248 -0.3043
 2751PAPS   C3B30614   9.809  10.418   5.301  0.1110  0.0636  0.1066
 2751PAPS   C4B30615   9.987  10.484   5.754  0.1387  0.0393  0.0645
 2752PAPS   CNO30616  18.466  13.348   3.413 -0.2183 -0.1404 -0.0279
 2752PAPS   PO430617  18.429  13.004   3.520  0.1810 -0.3932 -0.1136
 2752PAPS   GL130618  18.176  12.640   3.712  0.0248 -0.3791 -0.0450
 2752PAPS   GL230619  18.003  12.887   3.776 -0.1115  0.1307 -0.0748
 2752PAPS   C1A30620  18.217  12.559   4.075 -0.2682  0.0083  0.5296
 2752PAPS   D2A30621  18.352  12.660   4.437 -0.0522  0.5048  0.3976
 2752PAPS   D3A30622  18.750  12.510   4.628 -0.2206  0.2908  0.0400
 2752PAPS   D4A30623  19.164  12.454   4.442  0.1183 -0.2000 -0.2380
 2752PAPS   C5A30624  19.634  12.293   4.580 -0.2212  0.0188 -0.2623
 2752PAPS   C1B30625  17.947  13.035   4.192  0.2877 -0.4998  0.0948
 2752PAPS   C2B30626  18.006  13.016   4.650  0.0099  0.0565  0.0834
 2752PAPS   C3B30627  17.712  12.875   4.944 -0.0344 -0.0582 -0.1632
 2752PAPS   C4B30628  17.326  12.640   5.160 -0.4515  0.0708  0.2646
 2753PAPS   CNO30629  15.567   3.679   3.671  0.0898  0.0126  0.1205
 2753PAPS   PO430630  15.861   3.379   3.664  0.1130  0.0450  0.1639
 2753PAPS   GL130631  15.822   3.342   4.032  0.0331 -0.0467 -0.1998
 2753PAPS   GL230632  16.036   3.163   4.096  0.1529 -0.0583  0.1793
 2753PAPS   C1A30633  15.713   3.412   4.377  0.2406 -0.0152  0.2550
 2753PAPS   D2A30634  15.756   3.500   4.792  0.0106 -0.0065  0.0709
 2753PAPS   D3A30635  15.627   3.407   5.238  0.1277  0.1459  0.1560
 2753PAPS   D4A30636  15.647   3.727   5.547 -0.1005  0.2657  0.1061
 2753PAPS   C5A30637  15.999   3.705   5.827 -0.1149 -0.1245  0.1262
 2753PAPS   C1B30638  15.933   3.080   4.570 -0.0154  0.0532 -0.0140
 2753PAPS   C2B30639  16.098   3.263   5.057  0.1967  0.3479  0.1660
 2753PAPS   C3B30640  16.196   3.326   5.546 -0.0609 -0.0980  0.3309
 2753PAPS   C4B30641  16.526   3.524   5.784 -0.2906 -0.2453  0.0692
 2754PAPS   CNO30642  12.424   2.314   3.463  0.1660  0.2434  0.0267
 2754PAPS   PO430643  12.189   2.093   3.596  0.1179  0.2021 -0.1099
 2754PAPS   GL130644  12.176   2.008   4.044  0.1270 -0.0864  0.0049
 2754PAPS   GL230645  11.983   1.800   4.024  0.1686  0.0894  0.0675
 2754PAPS   C1A30646  11.986   2.273   4.192  0.0735 -0.0185 -0.4155
 2754PAPS   D2A30647  11.797   2.326   4.525  0.0321 -0.1990  0.0217
 2754PAPS   D3A30648  11.679   2.680   4.654 -0.0600 -0.0537  0.0116
 2754PAPS   D4A30649  11.602   3.032   4.384 -0.2458 -0.0424 -0.0466
 2754PAPS   C5A30650  11.440   2.949   3.946  0.0114 -0.1330  0.1174
 2754PAPS   C1B30651  11.580   1.646   4.089  0.1101 -0.0310 -0.0544
 2754PAPS   C2B30652  11.072   1.628   4.161 -0.2108  0.2547  0.0706
 2754PAPS   C3B30653  10.753   1.654   4.506  0.0135  0.4987  0.0709
 2754PAPS   C4B30654  10.585   1.551   4.857 -0.0169  0.2252  0.1700
 2755PAPS   CNO30655   9.609   9.687   2.752  0.3072  0.0132  0.1521
 2755PAPS   PO430656   9.803   9.460   3.047  0.0266  0.0636 -0.1122
 2755PAPS   GL130657  10.045   9.572   3.431  0.1377 -0.2564 -0.3348
 2755PAPS   GL230658   9.810   9.478   3.558  0.2029  0.2095 -0.2402
 2755PAPS   C1A30659  10.363   9.432   3.491 -0.1032  0.1486 -0.1420
 2755PAPS   D2A30660  10.383   9.175   3.782  0.0979  0.0692 -0.1675
 2755PAPS   D3A30661  10.692   9.001   4.028  0.4039 -0.2860 -0.1082
 2755PAPS   D4A30662  10.392   8.831   4.358 -0.1117  0.0273 -0.0787
 2755PAPS   C5A30663  10.208   8.465   4.602  0.1637  0.0545 -0.0323
 2755PAPS   C1B30664   9.779   9.558   4.059  0.1592  0.0294 -0.2613
 2755PAPS   C2B30665   9.732   9.404   4.527  0.0157 -0.0836  0.2402
 2755PAPS   C3B30666   9.734   9.590   4.956  0.1537  0.0498 -0.1507
 2755PAPS   C4B30667   9.639   9.677   5.365 -0.0485 -0.2396  0.1674
 2756PAPS   CNO30668  12.083  18.931   3.433 -0.1980 -0.1285  0.3353
 2756PAPS   PO430669  12.186  18.640   3.642 -0.0987  0.1349  0.0231
 2756PAPS   GL130670  12.571  18.805   3.875 -0.0121  0.0445  0.2575
 2756PAPS   GL230671  12.646  18.580   3.887  0.0724 -0.0668 -0.0681
 2756PAPS   C1A30672  12.649  19.048   4.191 -0.2907  0.2498  0.3020
 2756PAPS   D2A30673  12.571  19.161   4.593 -0.3036 -0.2391 -0.0290
 2756PAPS   D3A30674  12.384  19.264   5.040  0.2204  0.0064  0.0244
 2756PAPS   D4A30675  12.452  19.640   5.248  0.2534 -0.0601  0.3183
 2756PAPS   C5A30676  12.096  19.931   5.222 -0.1138 -0.0881  0.0566
 2756PAPS   C1B30677  12.738  18.400   4.263  0.2123 -0.0022  0.1454
 2756PAPS   C2B30678  12.795  17.935   4.579 -0.0363 -0.0073 -0.3973
 2756PAPS   C3B30679  12.760  17.724   4.989 -0.1743 -0.3426  0.3409
 2756PAPS   C4B30680  12.987  17.502   5.384  0.0448  0.0208 -0.1927
 2757PAPS   CNO30681  27.467   0.439   3.226 -0.1361 -0.1574 -0.1187
 2757PAPS   PO430682  27.475   0.499   3.621 -0.1254  0.2237 -0.4165
 2757PAPS   GL130683  27.573   0.878   3.855 -0.0339 -0.3011  0.3106
 2757PAPS   GL230684  27.790   0.822   3.943 -0.0875 -0.0462  0.1404
 2757PAPS   C1A30685  27.397   0.993   4.181  0.1124 -0.0334 -0.0465
 2757PAPS   D2A30686  27.019   1.035   4.431 -0.2017 -0.0270 -0.0299
 2757PAPS   D3A30687  26.969   1.482   4.350 -0.2291 -0.0030  0.0168
 2757PAPS   D4A30688  26.962   1.925   4.510 -0.1421 -0.1688  0.1038
 2757PAPS   C5A30689  27.307   2.155   4.661  0.1482 -0.0082 -0.1386
 2757PAPS   C1B30690  27.820   0.732   4.441 -0.1964  0.1454 -0.0089
 2757PAPS   C2B30691  27.808   0.833   4.955  0.0266 -0.2402 -0.0502
 2757PAPS   C3B30692  27.926   0.681   5.419 -0.0775  0.2041  0.1711
 2757PAPS   C4B30693  27.957   0.605   5.856 -0.0427 -0.1914  0.0409
 2758PAPS   CNO30694   9.722   1.108   3.300  0.0200 -0.1838 -0.0804
 2758PAPS   PO430695  10.071   0.923   3.362 -0.2130 -0.0007  0.0193
 2758PAPS   GL130696  10.256   0.782   3.697 -0.0308  0.0933 -0.0878
 2758PAPS   GL230697  10.083   0.707   3.830  0.0743 -0.0242 -0.3256
 2758PAPS   C1A30698  10.550   0.673   3.889 -0.2968 -0.0366  0.1188
 2758PAPS   D2A30699  10.546   0.295   4.056  0.0629 -0.2892  0.0656
 2758PAPS   D3A30700  10.405   0.091   3.700  0.1897 -0.1327 -0.0458
 2758PAPS   D4A30701   9.961   0.206   3.932 -0.0182 -0.1843 -0.1274
 2758PAPS   C5A30702   9.642   0.472   4.128 -0.1388  0.2289 -0.1809
 2758PAPS   C1B30703  10.195   0.552   4.188 -0.0048  0.0654 -0.0383
 2758PAPS   C2B30704  10.312   0.595   4.651  0.0765 -0.1448  0.0102
 2758PAPS   C3B30705  10.020   0.540   5.092 -0.4569 -0.1845 -0.3248
 2758PAPS   C4B30706  10.096   0.282   5.481  0.0088 -0.1635 -0.4077
 2759PAPS   CNO30707  18.697  18.228   3.568  0.0788 -0.1344 -0.1420
 2759PAPS   PO430708  19.093  18.171   3.652 -0.0227  0.0351 -0.1923
 2759PAPS   GL130709  19.067  17.966   3.967 -0.1966 -0.1518  0.2506
 2759PAPS   GL230710  19.240  17.676   3.856 -0.2119  0.0536 -0.0286
 2759PAPS   C1A30711  19.034  18.029   4.307 -0.1320  0.1181  0.0937
 2759PAPS   D2A30712  18.897  17.927   4.687  0.3509  0.2601  0.2786
 2759PAPS   D3A30713  18.465  18.100   4.670 -0.1028 -0.1412  0.0149
 2759PAPS   D4A30714  18.462  18.532   4.709 -0.0908 -0.2226  0.0191
 2759PAPS   C5A30715  18.809  18.446   4.454 -0.4720  0.3143  0.3074
 2759PAPS   C1B30716  19.374  17.505   4.172 -0.1324  0.0671 -0.2446
 2759PAPS   C2B30717  19.358  17.156   4.566 -0.0994  0.0268 -0.2548
 2759PAPS   C3B30718  19.334  16.948   4.977  0.0884  0.1232 -0.2660
 2759PAPS   C4B30719  19.234  16.789   5.483  0.1083 -0.0184 -0.0346
 2760PAPS   CNO30720  21.281  11.244   2.925 -0.0421 -0.1388  0.2515
 2760PAPS   PO430721  21.202  11.130   3.250  0.0146 -0.2208 -0.1079
 2760PAPS   GL130722  21.218  11.353   3.660 -0.0611  0.1536  0.0060
 2760PAPS   GL230723  21.484  11.377   3.601  0.0179  0.1113  0.0423
 2760PAPS   C1A30724  21.061  11.133   3.944 -0.1007  0.0400  0.1037
 2760PAPS   D2A30725  20.971  11.236   4.325 -0.1093  0.1210 -0.0138
 2760PAPS   D3A30726  20.893  11.084   4.725 -0.0777  0.1022 -0.0510
 2760PAPS   D4A30727  21.346  11.050   4.809  0.1182 -0.2536  0.2899
 2760PAPS   C5A30728  21.636  11.159   5.164 -0.2305 -0.0194 -0.3767
 2760PAPS   C1B30729  21.850  11.358   3.858  0.1246 -0.2164  0.1518
 2760PAPS   C2B30730  21.882  11.441   4.354 -0.0343 -0.1507  0.0246
 2760PAPS   C3B30731  21.712  11.489   4.757  0.0112 -0.3026 -0.0369
 2760PAPS   C4B30732  21.496  11.630   5.177 -0.0004 -0.0493 -0.1006
 2761PAPS   CNO30733  10.166  11.912   2.933 -0.1718 -0.0121  0.0607
 2761PAPS   PO430734  10.206  11.785   3.261 -0.2614  0.0688  0.3682
 2761PAPS   GL130735   9.953  11.620   3.459  0.2545  0.2173  0.3434
 2761PAPS   GL230736  10.195  11.472   3.638  0.3706 -0.1754  0.0331
 2761PAPS   C1A30737   9.882  11.803   3.788 -0.1650  0.0587 -0.1635
 2761PAPS   D2A30738  10.010  11.936   4.103 -0.1295 -0.0611 -0.0857
 2761PAPS   D3A30739  10.440  12.084   4.057  0.0510  0.2323  0.0436
 2761PAPS   D4A30740  10.706  12.289   4.348 -0.1034 -0.0826 -0.1099
 2761PAPS   C5A30741  10.578  12.395   4.761 -0.2963  0.0152  0.1063
 2761PAPS   C1B30742  10.025  11.464   4.095 -0.3258  0.0524  0.1487
 2761PAPS   C2B30743   9.984  11.565   4.580 -0.2021  0.1637 -0.1278
 2761PAPS   C3B30744  10.092  11.416   5.111  0.0279  0.3691 -0.2411
 2761PAPS   C4B30745  10.469  11.311   5.524  0.0015  0.2352 -0.0540
 2762PAPS   CNO30746   0.138   9.020   3.838  0.1358  0.0943 -0.1470
 2762PAPS   PO430747   0.262   8.695   3.964 -0.1285  0.0253 -0.3717
 2762PAPS   GL130748   0.482   8.640   4.394 -0.3236 -0.1985  0.2632
 2762PAPS   GL230749   0.190   8.626   4.324 -0.1427 -0.2564  0.0166
 2762PAPS   C1A30750   0.386   8.633   4.752  0.2068 -0.1031 -0.0831
 2762PAPS   D2A30751   0.332   8.482   5.108 -0.1019  0.1022  0.4281
 2762PAPS   D3A30752   0.710   8.488   5.300  0.2689  0.1574 -0.0861
 2762PAPS   D4A30753   0.837   8.511   5.723  0.1297 -0.2545 -0.2743
 2762PAPS   C5A30754   1.221   8.248   5.731 -0.0252 -0.1148 -0.0215
 2762PAPS   C1B30755  -0.022   8.421   4.675  0.0625  0.1206 -0.1929
 2762PAPS   C2B30756   0.111   8.056   5.015  0.1254  0.0483  0.2245
 2762PAPS   C3B30757   0.312   7.714   5.237  0.1323 -0.0611  0.2933
 2762PAPS   C4B30758   0.277   7.235   5.424 -0.3401 -0.2235  0.2202
 2763PAPS   CNO30759  12.734   3.132   3.679  0.2855  0.0394  0.0725
 2763PAPS   PO430760  13.073   3.116   3.892 -0.2397  0.1056  0.2811
 2763PAPS   GL130761  12.943   3.364   4.203 -0.5339 -0.1861 -0.2044
 2763PAPS   GL230762  12.662   3.260   4.188  0.1212 -0.2001  0.1755
 2763PAPS   C1A30763  13.090   3.684   4.352  0.1540 -0.1196  0.1217
 2763PAPS   D2A30764  13.158   3.753   4.739 -0.1672  0.1363 -0.1174
 2763PAPS   D3A30765  12.817   3.760   5.053  0.0284 -0.2574 -0.0159
 2763PAPS   D4A30766  12.838   4.017   5.372 -0.0766  0.1031  0.3746
 2763PAPS   C5A30767  12.852   4.542   5.188 -0.1565  0.0042  0.2372
 2763PAPS   C1B30768  12.359   3.219   4.462 -0.0818 -0.3232 -0.1527
 2763PAPS   C2B30769  12.074   3.464   4.845  0.0495  0.1469  0.3423
 2763PAPS   C3B30770  11.911   3.634   5.215 -0.0674  0.0865 -0.0380
 2763PAPS   C4B30771  11.718   3.770   5.620  0.0734  0.2159 -0.3297
 2764PAPS   CNO30772   7.267   8.929   3.548  0.0163  0.1465 -0.2550
 2764PAPS   PO430773   7.295   8.569   3.568 -0.3922  0.2121 -0.3178
 2764PAPS   GL130774   7.325   8.435   3.939  0.0611  0.1686 -0.1165
 2764PAPS   GL230775   7.024   8.542   3.985 -0.0899 -0.1746  0.1400
 2764PAPS   C1A30776   7.682   8.412   4.111 -0.1116 -0.2583 -0.0230
 2764PAPS   D2A30777   7.886   8.546   4.371 -0.2434  0.2837 -0.0321
 2764PAPS   D3A30778   7.801   8.609   4.824  0.0122  0.0083  0.1452
 2764PAPS   D4A30779   8.157   8.591   5.086  0.0767  0.5789 -0.1228
 2764PAPS   C5A30780   8.529   8.320   5.114 -0.2491 -0.2042  0.1208
 2764PAPS   C1B30781   6.931   8.737   4.367 -0.1919  0.3169  0.2409
 2764PAPS   C2B30782   6.682   8.765   4.823  0.0995 -0.1093 -0.1443
 2764PAPS   C3B30783   6.463   8.869   5.270  0.5187  0.0275 -0.0203
 2764PAPS   C4B30784   6.786   8.876   5.701 -0.1228 -0.2016  0.0076
 2765PAPS   CNO30785  10.901  25.694   3.481  0.4173 -0.4953 -0.1995
 2765PAPS   PO430786  10.603  25.741   3.729  0.1200 -0.0875  0.0650
 2765PAPS   GL130787  10.511  25.931   4.077 -0.2157 -0.2075  0.0067
 2765PAPS   GL230788  10.780  26.104   4.116  0.0745 -0.1070 -0.0837
 2765PAPS   C1A30789  10.360  25.763   4.355 -0.0052  0.1760 -0.1188
 2765PAPS   D2A30790  10.514  25.791   4.715  0.2948  0.2478 -0.0575
 2765PAPS   D3A30791  10.249  26.047   4.992  0.0502 -0.0919 -0.1027
 2765PAPS   D4A30792   9.855  26.326   5.094 -0.1187  0.0694  0.0109
 2765PAPS   C5A30793   9.387  26.232   5.028  0.1421  0.1879  0.3220
 2765PAPS   C1B30794  10.844  26.113   4.558 -0.0883  0.0612  0.0280
 2765PAPS   C2B30795  10.821  26.148   5.006 -0.2695  0.2260  0.0754
 2765PAPS   C3B30796  10.560  26.323   5.342  0.0102  0.1974  0.1588
 2765PAPS   C4B30797  10.109  26.462   5.544 -0.0631  0.1297  0.1221
 2766PAPS   CNO30798  11.758  21.223   3.082 -0.0557 -0.1368  0.3728
 2766PAPS   PO430799  11.969  21.502   3.241  0.3931  0.0431  0.1216
 2766PAPS   GL130800  12.020  21.358   3.671 -0.0784 -0.1480  0.2022
 2766PAPS   GL230801  11.758  21.456   3.750 -0.1180 -0.1382 -0.1932
 2766PAPS   C1A30802  11.993  21.184   3.981 -0.4363  0.4713  0.2433
 2766PAPS   D2A30803  12.298  21.315   4.179 -0.1820  0.0861 -0.0286
 2766PAPS   D3A30804  12.439  21.644   4.316  0.0762  0.1374 -0.1074
 2766PAPS   D4A30805  12.844  21.831   4.204 -0.3103 -0.1370 -0.1069
 2766PAPS   C5A30806  12.766  22.103   3.860  0.2023 -0.3318  0.0928
 2766PAPS   C1B30807  11.911  21.547   4.149  0.0809 -0.0559 -0.0871
 2766PAPS   C2B30808  12.015  21.542   4.592 -0.1285 -0.0365 -0.1599
 2766PAPS   C3B30809  12.112  21.368   4.998 -0.0665  0.0246 -0.0309
 2766PAPS   C4B30810  12.185  21.503   5.462  0.1301 -0.0576  0.1465
 2767PAPS   CNO30811   5.312  16.919   3.064 -0.1313 -0.1816  0.3114
 2767PAPS   PO430812   5.252  16.643   3.347 -0.0366 -0.0568 -0.3221
 2767PAPS   GL130813   5.290  16.648   3.711  0.2223  0.1533  0.0984
 2767PAPS   GL230814   5.098  16.544   3.832 -0.1545 -0.0475 -0.2629
 2767PAPS   C1A30815   5.329  16.954   3.962 -0.1700 -0.1111  0.3913
 2767PAPS   D2A30816   5.357  17.346   4.025 -0.0185 -0.0825  0.2199
 2767PAPS   D3A30817   4.887  17.564   3.918 -0.3451  0.0385 -0.0140
 2767PAPS   D4A30818   4.454  17.451   4.000 -0.0168 -0.3167 -0.3281
 2767PAPS   C5A30819   4.337  17.586   4.356  0.2368 -0.3001 -0.0080
 2767PAPS   C1B30820   5.203  16.675   4.257 -0.1918  0.1978  0.0960
 2767PAPS   C2B30821   5.392  16.669   4.790  0.2003 -0.0212  0.2102
 2767PAPS   C3B30822   5.370  16.531   5.245 -0.2131 -0.0707 -0.0368
 2767PAPS   C4B30823   5.314  16.608   5.672 -0.0603  0.0820  0.1950
 2768PAPS   CNO30824  25.904  17.285   3.129 -0.0827  0.0837 -0.1273
 2768PAPS   PO430825  26.162  17.332   3.414 -0.0796 -0.0438 -0.0270
 2768PAPS   GL130826  26.052  17.456   3.792 -0.0629  0.0836  0.0599
 2768PAPS   GL230827  26.034  17.173   3.922  0.0230 -0.0016 -0.1388
 2768PAPS   C1A30828  25.765  17.623   3.987 -0.0093 -0.3267 -0.0308
 2768PAPS   D2A30829  25.742  17.492   4.342  0.1222  0.1508  0.4175
 2768PAPS   D3A30830  25.379  17.510   4.570  0.1778  0.1919  0.2489
 2768PAPS   D4A30831  25.310  17.541   5.003  0.0848 -0.0242  0.2583
 2768PAPS   C5A30832  25.605  17.415   5.303 -0.0462  0.0703  0.0014
 2768PAPS   C1B30833  26.076  17.033   4.333  0.2592 -0.3489 -0.0006
 2768PAPS   C2B30834  26.091  16.900   4.823  0.0346  0.1397  0.1388
 2768PAPS   C3B30835  25.930  16.887   5.224 -0.0023 -0.2531  0.2370
 2768PAPS   C4B30836  25.803  16.488   5.348  0.2742  0.1545  0.3144
 2769PAPS   CNO30837  19.686   9.205   3.324  0.0380  0.1143 -0.1049
 2769PAPS   PO430838  19.505   9.541   3.399 -0.2274 -0.0234 -0.1038
 2769PAPS   GL130839  19.596   9.733   3.805  0.0604 -0.1890  0.0168
 2769PAPS   GL230840  19.446   9.973   3.793 -0.0868 -0.0142  0.1821
 2769PAPS   C1A30841  19.814   9.773   4.057 -0.2230 -0.2196 -0.0499
 2769PAPS   D2A30842  20.041   9.930   4.343  0.1430 -0.1569  0.3353
 2769PAPS   D3A30843  19.792  10.196   4.631  0.0461  0.0673  0.0925
 2769PAPS   D4A30844  19.740  10.328   5.018  0.2678 -0.0956 -0.5874
 2769PAPS   C5A30845  19.306  10.107   5.026  0.0073  0.1957  0.1902
 2769PAPS   C1B30846  19.346   9.797   4.138  0.0241  0.2380  0.2098
 2769PAPS   C2B30847  19.553   9.772   4.659  0.0812 -0.1368  0.3439
 2769PAPS   C3B30848  19.766   9.777   5.100  0.1236  0.0241 -0.1457
 2769PAPS   C4B30849  19.695  10.021   5.512 -0.1888 -0.0799  0.0833
 2770PAPS   CNO30850   6.809  10.203   3.249  0.1314  0.2588 -0.1747
 2770PAPS   PO430851   6.512  10.350   3.054 -0.1637 -0.3983 -0.1777
 2770PAPS   GL130852   6.223  10.539   3.415 -0.2870  0.2552  0.4499
 2770PAPS   GL230853   6.527  10.439   3.515 -0.1167 -0.2054  0.0142
 2770PAPS   C1A30854   6.084  10.376   3.709  0.3237 -0.2542 -0.2199
 2770PAPS   D2A30855   5.890  10.384   4.056 -0.0576  0.1753  0.2215
 2770PAPS   D3A30856   5.814  10.129   4.318 -0.2905 -0.0267  0.1537
 2770PAPS   D4A30857   5.807  10.141   4.777 -0.1678  0.2120 -0.0035
 2770PAPS   C5A30858   5.834  10.473   5.073 -0.1322  0.0679  0.2859
 2770PAPS   C1B30859   6.642  10.738   3.846  0.0926  0.2742  0.1525
 2770PAPS   C2B30860   6.737  10.870   4.365 -0.0509  0.3907  0.0124
 2770PAPS   C3B30861   6.562  10.903   4.832 -0.2567 -0.2144  0.0072
 2770PAPS   C4B30862   6.567  10.932   5.291  0.0112  0.1614  0.2895
 2771PAPS   CNO30863  21.119  23.972   3.026 -0.0743 -0.0636 -0.0920
 2771PAPS   PO430864  21.410  24.099   3.208 -0.2901  0.0690  0.0152
 2771PAPS   GL130865  21.418  23.951   3.595 -0.3451 -0.1186  0.2485
 2771PAPS   GL230866  21.655  23.783   3.559 -0.2550 -0.0476 -0.0615
 2771PAPS   C1A30867  21.415  23.889   3.964 -0.3017  0.2017  0.0337
 2771PAPS   D2A30868  21.536  23.877   4.391  0.1791  0.0714  0.0259
 2771PAPS   D3A30869  21.928  23.703   4.354  0.0160 -0.2097 -0.1922
 2771PAPS   D4A30870  22.381  23.817   4.312 -0.3426 -0.0862  0.1934
 2771PAPS   C5A30871  22.611  24.012   3.971 -0.1438  0.3922  0.0378
 2771PAPS   C1B30872  21.708  23.571   3.897 -0.0093  0.2079 -0.0551
 2771PAPS   C2B30873  21.535  23.308   4.236 -0.1127 -0.2168 -0.0947
 2771PAPS   C3B30874  21.210  23.182   4.557 -0.1020  0.1126 -0.1109
 2771PAPS   C4B30875  21.073  22.738   4.612 -0.0918  0.0767  0.0623
 2772PAPS   CNO30876  21.961  25.921   3.002  0.0064 -0.1136 -0.0945
 2772PAPS   PO430877  21.785  26.206   3.246  0.1297  0.2658  0.1199
 2772PAPS   GL130878  21.543  26.181   3.672  0.4866 -0.2212 -0.2088
 2772PAPS   GL230879  21.815  26.276   3.823 -0.0214  0.1636  0.3776
 2772PAPS   C1A30880  21.243  26.340   3.641 -0.2840 -0.1091 -0.1207
 2772PAPS   D2A30881  20.931  26.354   3.895  0.1062 -0.0610  0.2126
 2772PAPS   D3A30882  20.443  26.268   3.892 -0.0559  0.0734  0.1092
 2772PAPS   D4A30883  20.078  26.135   3.631 -0.1067  0.0677 -0.1362
 2772PAPS   C5A30884  19.741  26.035   3.958 -0.1633  0.3980  0.2753
 2772PAPS   C1B30885  21.962  26.436   4.222 -0.3387  0.2277 -0.2199
 2772PAPS   C2B30886  21.985  26.455   4.734 -0.0436  0.0391  0.1001
 2772PAPS   C3B30887  21.845  26.670   5.159 -0.2029  0.1825  0.1453
 2772PAPS   C4B30888  21.619  26.827   5.618 -0.0685 -0.2305 -0.1854
 2773PAPS   CNO30889  11.175   1.819   2.875 -0.1068 -0.2385 -0.1070
 2773PAPS   PO430890  11.362   1.783   3.194  0.1950  0.1113  0.0473
 2773PAPS   GL130891  11.127   1.662   3.550 -0.1010 -0.2347 -0.0129
 2773PAPS   GL230892  11.380   1.797   3.741 -0.2013  0.3010  0.0284
 2773PAPS   C1A30893  10.875   1.728   3.747 -0.0268  0.0849  0.2593
 2773PAPS   D2A30894  10.600   1.548   3.896  0.0103 -0.0276 -0.0737
 2773PAPS   D3A30895  10.388   1.359   4.202  0.0654 -0.1513 -0.2639
 2773PAPS   D4A30896  10.424   0.962   4.284  0.1578  0.0948  0.2985
 2773PAPS   C5A30897  10.775   0.676   4.311 -0.0133 -0.0309  0.1403
 2773PAPS   C1B30898  11.140   2.093   3.993  0.0731  0.3098 -0.2018
 2773PAPS   C2B30899  11.070   1.989   4.500 -0.4102  0.0338 -0.1591
 2773PAPS   C3B30900  11.313   2.262   4.806 -0.1469  0.1236 -0.0635
 2773PAPS   C4B30901  11.475   2.547   5.185 -0.1186 -0.1831 -0.0466
 2774PAPS   CNO30902  25.690   5.710   3.683 -0.1258 -0.1763 -0.0309
 2774PAPS   PO430903  25.766   5.368   3.828 -0.2290  0.2546 -0.0132
 2774PAPS   GL130904  25.624   5.184   4.183  0.1680  0.0132  0.0348
 2774PAPS   GL230905  25.894   5.180   4.246 -0.3266  0.1663  0.1514
 2774PAPS   C1A30906  25.533   5.267   4.518  0.1886  0.2118 -0.2329
 2774PAPS   D2A30907  25.338   5.372   4.866 -0.0917  0.1960 -0.1114
 2774PAPS   D3A30908  25.347   5.419   5.302 -0.0639 -0.0262  0.3053
 2774PAPS   D4A30909  25.589   5.750   5.599 -0.2173  0.3481 -0.2204
 2774PAPS   C5A30910  26.093   5.750   5.619  0.0174  0.0337 -0.2083
 2774PAPS   C1B30911  26.163   5.384   4.416  0.0440  0.1437 -0.3331
 2774PAPS   C2B30912  26.316   5.361   4.931  0.2016 -0.1065 -0.1606
 2774PAPS   C3B30913  26.497   5.534   5.322 -0.1362  0.0116  0.1129
 2774PAPS   C4B30914  26.440   5.310   5.785 -0.0596  0.0043 -0.0873
 2775PAPS   CNO30915  18.720  12.523   3.054  0.2243 -0.0077  0.1723
 2775PAPS   PO430916  18.546  12.519   3.377 -0.0551  0.0114 -0.1305
 2775PAPS   GL130917  18.807  12.280   3.654 -0.0636 -0.0950  0.1299
 2775PAPS   GL230918  18.501  12.215   3.636 -0.2611 -0.1497 -0.1886
 2775PAPS   C1A30919  18.916  12.215   4.007 -0.0860 -0.2673  0.0291
 2775PAPS   D2A30920  18.592  12.134   4.159  0.0354 -0.0253  0.1818
 2775PAPS   D3A30921  18.864  12.039   4.541  0.1874  0.4428  0.1768
 2775PAPS   D4A30922  19.219  12.049   4.722 -0.2644 -0.0500  0.1834
 2775PAPS   C5A30923  19.195  12.087   5.220  0.3143 -0.1793 -0.1935
 2775PAPS   C1B30924  18.154  12.056   3.963  0.1044 -0.2049  0.2511
 2775PAPS   C2B30925  18.072  12.146   4.489 -0.1753  0.0429 -0.0462
 2775PAPS   C3B30926  18.449  12.126   4.812 -0.2836 -0.1591  0.1416
 2775PAPS   C4B30927  18.820  11.743   4.950  0.0529 -0.4234  0.2402
 2776PAPS   CNO30928  19.584  17.166   2.970 -0.1849 -0.3691 -0.1242
 2776PAPS   PO430929  19.351  17.310   3.189  0.1209 -0.2066 -0.1008
 2776PAPS   GL130930  19.445  17.137   3.534  0.1125  0.1495  0.0942
 2776PAPS   GL230931  19.672  17.122   3.425 -0.2028  0.0637 -0.0757
 2776PAPS   C1A30932  19.332  17.189   3.851 -0.0960  0.0421 -0.2067
 2776PAPS   D2A30933  19.099  17.108   4.156 -0.0040 -0.1054  0.0580
 2776PAPS   D3A30934  18.707  17.015   4.413 -0.2715  0.0284 -0.1614
 2776PAPS   D4A30935  18.786  16.945   4.859 -0.0387 -0.1579 -0.2736
 2776PAPS   C5A30936  18.763  16.843   5.319  0.0776 -0.0339 -0.1091
 2776PAPS   C1B30937  19.875  17.231   3.811 -0.2482 -0.1701  0.0467
 2776PAPS   C2B30938  19.837  17.474   4.223  0.4102  0.0813 -0.0652
 2776PAPS   C3B30939  19.820  17.358   4.682  0.2648  0.1640 -0.3290
 2776PAPS   C4B30940  19.816  17.102   5.032 -0.0593  0.0452 -0.0944
 2777PAPS   CNO30941  23.100  22.105   3.473  0.0554  0.1536 -0.2901
 2777PAPS   PO430942  23.477  22.218   3.382  0.0561 -0.2225  0.2706
 2777PAPS   GL130943  23.474  22.650   3.666 -0.0657 -0.0552  0.3909
 2777PAPS   GL230944  23.640  22.486   3.803 -0.0398  0.2096 -0.2542
 2777PAPS   C1A30945  23.371  22.898   3.882 -0.2243  0.0420 -0.2654
 2777PAPS   D2A30946  23.317  23.304   3.947  0.0633  0.2885 -0.4713
 2777PAPS   D3A30947  23.033  23.355   4.326  0.0059 -0.2699  0.0367
 2777PAPS   D4A30948  22.966  23.295   4.799 -0.0699 -0.0732 -0.5459
 2777PAPS   C5A30949  23.209  23.048   5.141 -0.0641 -0.0438  0.0376
 2777PAPS   C1B30950  23.714  22.596   4.238  0.0276 -0.1416  0.2591
 2777PAPS   C2B30951  23.742  22.854   4.685 -0.0807 -0.1450 -0.1080
 2777PAPS   C3B30952  23.740  23.123   5.119 -0.0135 -0.0557  0.1393
 2777PAPS   C4B30953  23.802  23.591   5.283  0.0637  0.1115 -0.1688
 2778PAPS   CNO30954  26.712   5.040   3.742  0.1740 -0.2347 -0.1013
 2778PAPS   PO430955  26.495   4.767   3.890  0.3746  0.1954 -0.3630
 2778PAPS   GL130956  26.749   4.790   4.232  0.1822  0.2408  0.0281
 2778PAPS   GL230957  26.746   5.079   4.280  0.0025  0.1508 -0.0603
 2778PAPS   C1A30958  26.816   4.610   4.535  0.0538 -0.1015  0.1554
 2778PAPS   D2A30959  26.631   4.573   4.919  0.1155  0.1358 -0.2216
 2778PAPS   D3A30960  26.371   4.425   5.255  0.0049  0.0543 -0.5576
 2778PAPS   D4A30961  26.496   4.073   5.396  0.1725  0.3293 -0.3627
 2778PAPS   C5A30962  26.653   4.163   5.763 -0.1423  0.0808  0.0096
 2778PAPS   C1B30963  26.656   5.050   4.748 -0.0767 -0.0282  0.0145
 2778PAPS   C2B30964  26.581   4.992   5.253  0.4916  0.2422 -0.0305
 2778PAPS   C3B30965  26.557   4.717   5.638 -0.1071  0.4315  0.0164
 2778PAPS   C4B30966  26.707   4.532   6.064  0.1762 -0.2010  0.1210
 2779PAPS   CNO30967   9.678   4.523   2.938  0.0077  0.1251 -0.2720
 2779PAPS   PO430968   9.765   4.822   3.123 -0.1175  0.3017 -0.0042
 2779PAPS   GL130969   9.622   4.794   3.556 -0.1264 -0.3907 -0.0531
 2779PAPS   GL230970   9.690   5.028   3.683 -0.0052 -0.1850 -0.3842
 2779PAPS   C1A30971   9.506   4.654   3.822  0.0143  0.4140 -0.0528
 2779PAPS   D2A30972   9.172   4.441   3.970  0.1087  0.1169 -0.1886
 2779PAPS   D3A30973   9.319   4.454   4.365 -0.0532  0.3139  0.0134
 2779PAPS   D4A30974   9.275   4.655   4.813 -0.0741 -0.2812 -0.0748
 2779PAPS   C5A30975   9.504   4.467   5.122  0.1743  0.6772  0.2618
 2779PAPS   C1B30976   9.685   4.886   4.138  0.3491 -0.2857 -0.2744
 2779PAPS   C2B30977   9.823   4.576   4.637  0.0554  0.0292 -0.0631
 2779PAPS   C3B30978  10.212   4.327   4.834  0.2099  0.4166  0.0319
 2779PAPS   C4B30979  10.533   4.006   4.990 -0.1579  0.3770  0.2777
 2780PAPS   CNO30980  25.499  12.917   3.713 -0.0435  0.4023 -0.0612
 2780PAPS   PO430981  25.178  12.982   3.871  0.0185 -0.3711 -0.3456
 2780PAPS   GL130982  25.215  12.769   4.229 -0.0943  0.0652  0.2373
 2780PAPS   GL230983  25.511  12.771   4.164 -0.2685  0.1111 -0.0276
 2780PAPS   C1A30984  25.036  12.899   4.558  0.1089 -0.2327 -0.0025
 2780PAPS   D2A30985  24.913  13.192   4.773 -0.0636 -0.2682 -0.2070
 2780PAPS   D3A30986  24.814  13.583   5.045  0.0953  0.2485  0.2615
 2780PAPS   D4A30987  24.520  13.684   5.299  0.0134  0.0399  0.1979
 2780PAPS   C5A30988  24.436  13.325   4.985 -0.0133  0.2800 -0.1398
 2780PAPS   C1B30989  25.523  12.656   4.635 -0.2585 -0.1894 -0.2867
 2780PAPS   C2B30990  25.385  12.514   5.073  0.0528 -0.0511  0.0881
 2780PAPS   C3B30991  25.216  12.442   5.544  0.2674  0.0747 -0.0228
 2780PAPS   C4B30992  25.032  12.416   6.038 -0.2027 -0.0487 -0.2199
 2781PAPS   CNO30993  19.719  11.810   3.242  0.2116  0.2251 -0.0870
 2781PAPS   PO430994  19.499  11.695   3.561 -0.3312 -0.0409 -0.1202
 2781PAPS   GL130995  19.462  11.427   3.856 -0.1922  0.1713 -0.1890
 2781PAPS   GL230996  19.171  11.657   3.915  0.4137  0.2046  0.1366
 2781PAPS   C1A30997  19.570  11.187   4.113  0.1321 -0.2157  0.2258
 2781PAPS   D2A30998  19.690  10.817   4.005  0.2164 -0.0300  0.0416
 2781PAPS   D3A30999  19.471  10.672   4.386 -0.2039 -0.1176 -0.0003
 2781PAPS   D4A31000  19.287  10.579   4.779 -0.1640  0.2830  0.3006
 2781PAPS   C5A31001  18.921  10.613   5.050 -0.0086 -0.0155 -0.1816
 2781PAPS   C1B31002  18.941  11.586   4.308 -0.2630 -0.0903  0.0399
 2781PAPS   C2B31003  18.491  11.635   4.491  0.0243  0.0454 -0.2943
 2781PAPS   C3B31004  18.064  11.736   4.789 -0.0237 -0.0683 -0.0897
 2781PAPS   C4B31005  17.656  11.680   5.048 -0.2233 -0.4546  0.2607
 2782PAPS   CNO31006  25.876  13.342   3.781 -0.1620 -0.2821 -0.0318
 2782PAPS   PO431007  25.956  13.642   4.030  0.0371 -0.1120  0.1850
 2782PAPS   GL131008  26.060  13.507   4.426 -0.3312  0.2445 -0.3789
 2782PAPS   GL231009  25.775  13.680   4.485 -0.0614  0.5275  0.2453
 2782PAPS   C1A31010  26.206  13.270   4.632  0.0947  0.2630  0.1073
 2782PAPS   D2A31011  26.622  13.374   4.569 -0.2225  0.2854 -0.0089
 2782PAPS   D3A31012  27.022  13.139   4.595  0.2224 -0.0342  0.3905
 2782PAPS   D4A31013  27.328  12.825   4.677 -0.1958 -0.1821 -0.0985
 2782PAPS   C5A31014  27.700  12.828   4.956 -0.2674  0.0154  0.2965
 2782PAPS   C1B31015  25.877  13.986   4.749  0.1779 -0.0756 -0.0340
 2782PAPS   C2B31016  26.156  14.311   4.976 -0.0049  0.1254 -0.1178
 2782PAPS   C3B31017  26.435  14.693   5.042 -0.0197  0.1135  0.0582
 2782PAPS   C4B31018  26.807  14.763   5.340  0.1112  0.0868 -0.1101
 2783PAPS   CNO31019   7.538   9.909   3.314 -0.3526 -0.1275  0.0835
 2783PAPS   PO431020   7.739  10.208   3.273 -0.1057  0.1391 -0.1746
 2783PAPS   GL131021   7.853  10.094   3.720  0.0317  0.3164  0.3065
 2783PAPS   GL231022   7.580  10.143   3.725 -0.1771 -0.0650 -0.2757
 2783PAPS   C1A31023   8.158   9.979   3.952  0.0670 -0.2662  0.2697
 2783PAPS   D2A31024   8.250   9.952   4.344  0.0127 -0.0974 -0.0427
 2783PAPS   D3A31025   8.434   9.983   4.769 -0.3085  0.2464 -0.0523
 2783PAPS   D4A31026   8.768  10.186   4.913  0.2205 -0.3781 -0.0589
 2783PAPS   C5A31027   9.141  10.156   4.660 -0.2341  0.1539 -0.1031
 2783PAPS   C1B31028   7.371  10.148   4.142 -0.0132 -0.2607  0.2940
 2783PAPS   C2B31029   7.248  10.192   4.644  0.0346 -0.1460 -0.1095
 2783PAPS   C3B31030   7.159  10.229   5.115 -0.1367  0.1394  0.3209
 2783PAPS   C4B31031   6.859  10.562   5.404  0.0075  0.2420 -0.1190
 2784PAPS   CNO31032   2.510  23.057   3.596  0.2798 -0.0367  0.2500
 2784PAPS   PO431033   2.659  23.055   3.964 -0.0516 -0.0213  0.1234
 2784PAPS   GL131034   2.325  22.931   4.190  0.1947  0.1893 -0.5495
 2784PAPS   GL231035   2.570  22.920   4.386  0.1409  0.3439 -0.2715
 2784PAPS   C1A31036   2.075  23.111   4.330 -0.6306  0.0700 -0.1689
 2784PAPS   D2A31037   1.847  23.420   4.302  0.2003 -0.2742 -0.0980
 2784PAPS   D3A31038   1.576  23.536   4.683 -0.0097  0.0691 -0.4155
 2784PAPS   D4A31039   1.403  23.241   4.994  0.0614  0.1733  0.1007
 2784PAPS   C5A31040   1.506  23.392   5.437  0.1568  0.2909  0.0481
 2784PAPS   C1B31041   2.496  23.293   4.550  0.0699  0.3648  0.2584
 2784PAPS   C2B31042   2.477  23.467   5.049 -0.0383  0.1509 -0.0627
 2784PAPS   C3B31043   2.656  23.526   5.485 -0.2420 -0.0745  0.1250
 2784PAPS   C4B31044   2.803  23.482   5.962  0.0677 -0.2443 -0.0018
 2785PAPS   CNO31045  22.145  17.924   2.495 -0.0845  0.0610  0.0719
 2785PAPS   PO431046  22.278  17.903   2.881 -0.0429 -0.1825  0.1962
 2785PAPS   GL131047  21.991  17.804   3.270  0.2251 -0.2106 -0.0112
 2785PAPS   GL231048  22.278  17.756   3.412 -0.0113 -0.0763  0.0630
 2785PAPS   C1A31049  22.003  18.080   3.567 -0.3012 -0.0257  0.0689
 2785PAPS   D2A31050  21.993  18.344   3.914 -0.2593 -0.0926 -0.3106
 2785PAPS   D3A31051  22.391  18.252   3.951  0.3662 -0.1557  0.0092
 2785PAPS   D4A31052  22.829  18.219   3.954 -0.2112  0.2298  0.2807
 2785PAPS   C5A31053  22.728  18.271   3.483 -0.0339  0.1062  0.0404
 2785PAPS   C1B31054  22.496  17.854   3.773  0.1287  0.1514 -0.2075
 2785PAPS   C2B31055  22.644  17.899   4.299  0.0225 -0.0553  0.1657
 2785PAPS   C3B31056  22.630  18.137   4.697  0.0017 -0.5024 -0.0659
 2785PAPS   C4B31057  22.436  18.575   4.923 -0.1397  0.2777  0.1454
 2786PAPS   CNO31058  20.591   9.712   3.201 -0.1725  0.0061 -0.0709
 2786PAPS   PO431059  20.358   9.719   3.516  0.2109 -0.0768  0.1930
 2786PAPS   GL131060  20.423   9.802   3.903  0.0156 -0.1810  0.0055
 2786PAPS   GL231061  20.202   9.767   3.973 -0.2703 -0.0775 -0.1094
 2786PAPS   C1A31062  20.734   9.884   4.091 -0.1350  0.1584 -0.0298
 2786PAPS   D2A31063  20.552   9.846   4.479 -0.0183 -0.2917  0.2173
 2786PAPS   D3A31064  20.682   9.502   4.772  0.2595 -0.0968 -0.0363
 2786PAPS   D4A31065  20.529   9.213   5.018 -0.1215  0.2447 -0.3179
 2786PAPS   C5A31066  20.242   9.555   5.243  0.0546  0.0003 -0.0803
 2786PAPS   C1B31067  20.254   9.532   4.358  0.2138 -0.2462 -0.2671
 2786PAPS   C2B31068  20.120   9.816   4.780  0.0084  0.0998  0.0578
 2786PAPS   C3B31069  20.162  10.050   5.147 -0.0881  0.0321  0.0694
 2786PAPS   C4B31070  20.362  10.046   5.621  0.0355  0.0138 -0.0439
 2787PAPS   CNO31071  21.522   2.456   3.251 -0.2679  0.0638 -0.1762
 2787PAPS   PO431072  21.325   2.188   3.410 -0.3188 -0.0421 -0.0074
 2787PAPS   GL131073  21.159   2.359   3.682  0.0120 -0.0386 -0.0946
 2787PAPS   GL231074  21.370   2.620   3.640  0.1732  0.2204 -0.3572
 2787PAPS   C1A31075  20.812   2.391   3.810 -0.1147 -0.0827 -0.1369
 2787PAPS   D2A31076  20.469   2.410   4.024 -0.3372 -0.0508  0.0103
 2787PAPS   D3A31077  20.203   2.314   4.379  0.2912 -0.0295 -0.3266
 2787PAPS   D4A31078  20.027   2.387   4.839  0.2407 -0.3837 -0.0347
 2787PAPS   C5A31079  20.170   2.548   5.232  0.2230 -0.0772 -0.0251
 2787PAPS   C1B31080  21.565   2.613   4.144  0.0857 -0.1416 -0.0940
 2787PAPS   C2B31081  21.637   2.652   4.621 -0.0168 -0.0462 -0.2243
 2787PAPS   C3B31082  21.744   2.653   5.080  0.0076 -0.1496 -0.2658
 2787PAPS   C4B31083  21.538   3.052   5.373 -0.1252 -0.0397  0.0320
 2788PAPS   CNO31084  27.433   8.491   3.960 -0.0019  0.1300 -0.0494
 2788PAPS   PO431085  27.241   8.788   4.024 -0.0134 -0.1679  0.1032
 2788PAPS   GL131086  27.237   9.126   4.199 -0.0718  0.0612  0.0026
 2788PAPS   GL231087  27.315   9.079   4.425  0.0248  0.1258  0.2337
 2788PAPS   C1A31088  27.084   9.415   4.130  0.2462 -0.2822 -0.1149
 2788PAPS   D2A31089  26.706   9.577   4.075 -0.2049 -0.0694 -0.1082
 2788PAPS   D3A31090  26.916   9.943   4.229  0.3295  0.2735  0.2411
 2788PAPS   D4A31091  26.942  10.382   4.039 -0.2198  0.2573 -0.0517
 2788PAPS   C5A31092  26.700  10.780   4.027 -0.1347 -0.2105 -0.0141
 2788PAPS   C1B31093  27.457   9.210   4.907  0.2861  0.2311 -0.1742
 2788PAPS   C2B31094  27.621   9.064   5.361 -0.5326  0.0770  0.5512
 2788PAPS   C3B31095  27.855   8.684   5.556 -0.4522  0.2397 -0.0020
 2788PAPS   C4B31096  27.854   8.175   5.538 -0.2225 -0.0308 -0.0747
 2789PAPS   CNO31097  24.858   0.655   3.212  0.0563  0.0328 -0.1326
 2789PAPS   PO431098  25.067   0.824   3.501  0.3848  0.0712  0.1873
 2789PAPS   GL131099  25.046   0.613   3.953 -0.0822 -0.1413 -0.2653
 2789PAPS   GL231100  25.150   0.930   4.004 -0.3076  0.1102 -0.2530
 2789PAPS   C1A31101  24.814   0.546   4.276  0.2584  0.0214 -0.0790
 2789PAPS   D2A31102  24.883   0.394   4.622 -0.5420  0.1658 -0.0188
 2789PAPS   D3A31103  24.879   0.513   5.031 -0.1220  0.3130 -0.1241
 2789PAPS   D4A31104  24.971   0.242   5.343  0.3260 -0.0194 -0.2181
 2789PAPS   C5A31105  24.803  -0.168   5.401  0.1522  0.2611 -0.2037
 2789PAPS   C1B31106  24.941   1.113   4.315 -0.3292 -0.2757  0.1832
 2789PAPS   C2B31107  24.948   1.314   4.845 -0.0441  0.0975 -0.3582
 2789PAPS   C3B31108  24.817   1.392   5.338  0.3628  0.0764 -0.2781
 2789PAPS   C4B31109  24.572   1.463   5.735  0.0028 -0.1295 -0.0728
 2790PAPS   CNO31110  10.606   3.045   2.881 -0.4076 -0.2287  0.2949
 2790PAPS   PO431111  10.308   3.274   3.006 -0.2483  0.1971 -0.3752
 2790PAPS   GL131112  10.254   3.495   3.494  0.0409  0.2001  0.2043
 2790PAPS   GL231113  10.269   3.285   3.572 -0.4778 -0.1520  0.2200
 2790PAPS   C1A31114  10.216   3.706   3.787 -0.0416  0.0760 -0.0543
 2790PAPS   D2A31115   9.978   3.833   4.091 -0.0232  0.1208  0.1736
 2790PAPS   D3A31116   9.688   3.666   4.430 -0.0470 -0.4825 -0.6729
 2790PAPS   D4A31117   9.403   3.482   4.749  0.4252 -0.2144 -0.2375
 2790PAPS   C5A31118   9.362   3.323   5.182  0.0008 -0.0296  0.0646
 2790PAPS   C1B31119   9.996   3.172   3.942  0.1002  0.0428 -0.0654
 2790PAPS   C2B31120  10.013   3.252   4.455 -0.0198  0.0340 -0.0156
 2790PAPS   C3B31121   9.874   3.330   4.849  0.0282 -0.0084 -0.0885
 2790PAPS   C4B31122   9.732   2.942   5.176  0.1230 -0.1652 -0.2506
 2791PAPS   CNO31123   5.550  25.383   4.064  0.3185 -0.1524 -0.5421
 2791PAPS   PO431124   5.882  25.545   3.956  0.0807  0.2649  0.1954
 2791PAPS   GL131125   5.951  25.365   4.325 -0.0315  0.3095 -0.4020
 2791PAPS   GL231126   5.861  25.515   4.511  0.1686 -0.1970  0.3595
 2791PAPS   C1A31127   6.043  25.014   4.370  0.1411 -0.0365  0.3487
 2791PAPS   D2A31128   6.058  25.061   4.774 -0.2657 -0.1967 -0.0192
 2791PAPS   D3A31129   5.864  25.415   4.956 -0.1357 -0.3508 -0.0672
 2791PAPS   D4A31130   5.638  25.556   5.259  0.0426 -0.0691  0.1639
 2791PAPS   C5A31131   5.655  25.633   5.713  0.1935  0.2293  0.0323
 2791PAPS   C1B31132   5.463  25.600   4.748  0.0775 -0.0970  0.2036
 2791PAPS   C2B31133   5.180  25.776   5.095  0.1540  0.0288  0.3359
 2791PAPS   C3B31134   5.432  26.034   5.406  0.0908 -0.0773 -0.0460
 2791PAPS   C4B31135   5.595  26.373   5.768 -0.2026  0.0444 -0.2364
 2792PAPS   CNO31136   5.973  26.412   3.273  0.2641  0.0357  0.0620
 2792PAPS   PO431137   5.758  26.417   3.606 -0.0475  0.3127  0.0097
 2792PAPS   GL131138   5.774  26.427   3.978  0.0165 -0.2728  0.2146
 2792PAPS   GL231139   5.512  26.371   4.050 -0.0031  0.0864  0.1697
 2792PAPS   C1A31140   6.010  26.251   4.234 -0.0803 -0.3036 -0.1101
 2792PAPS   D2A31141   6.270  26.175   4.501 -0.1189  0.0940 -0.0701
 2792PAPS   D3A31142   6.281  26.524   4.642  0.0980 -0.0692  0.2046
 2792PAPS   D4A31143   6.350  26.361   5.091  0.1827  0.1027  0.1431
 2792PAPS   C5A31144   6.037  26.490   5.421  0.4310  0.1227  0.2985
 2792PAPS   C1B31145   5.576  26.238   4.436  0.0176  0.3609  0.1978
 2792PAPS   C2B31146   5.650  26.004   4.847 -0.0266 -0.0141  0.0929
 2792PAPS   C3B31147   5.890  25.978   5.305 -0.0478  0.0866 -0.1500
 2792PAPS   C4B31148   6.102  25.539   5.500  0.0352 -0.0529  0.0733
 2793PAPS   CNO31149  19.986  23.427   3.562 -0.0759 -0.5694 -0.0006
 2793PAPS   PO431150  20.260  23.434   3.816  0.1694 -0.0339 -0.0802
 2793PAPS   GL131151  20.427  23.586   4.130  0.2136 -0.1621 -0.0994
 2793PAPS   GL231152  20.671  23.567   4.195  0.0338  0.0786 -0.0118
 2793PAPS   C1A31153  20.160  23.718   4.359  0.3560 -0.5937 -0.2358
 2793PAPS   D2A31154  19.843  23.880   4.397 -0.1629 -0.1816  0.1290
 2793PAPS   D3A31155  19.481  23.885   4.606 -0.3593  0.1075  0.1867
 2793PAPS   D4A31156  19.215  24.219   4.401  0.0120  0.2937  0.2054
 2793PAPS   C5A31157  19.330  24.363   4.820  0.1882  0.0614 -0.3553
 2793PAPS   C1B31158  20.468  23.579   4.610  0.1721 -0.0026  0.1920
 2793PAPS   C2B31159  20.172  23.307   4.884  0.1121 -0.1477 -0.0542
 2793PAPS   C3B31160  19.982  23.101   5.297 -0.0772 -0.0727  0.1365
 2793PAPS   C4B31161  19.760  22.941   5.740 -0.0604 -0.2411  0.1538
 2794PAPS   CNO31162  24.435  25.475   2.839 -0.1332 -0.2926  0.0373
 2794PAPS   PO431163  24.501  25.734   3.093  0.0509 -0.1097  0.0724
 2794PAPS   GL131164  24.808  25.694   3.386 -0.1588  0.0879  0.1632
 2794PAPS   GL231165  24.736  25.405   3.452 -0.1622 -0.7794 -0.0549
 2794PAPS   C1A31166  24.830  25.927   3.667 -0.0985 -0.0381  0.2207
 2794PAPS   D2A31167  24.621  26.019   4.028 -0.1680 -0.0305 -0.2557
 2794PAPS   D3A31168  24.521  26.435   3.872  0.2001  0.1280  0.1339
 2794PAPS   D4A31169  24.386  26.593   4.221 -0.1469  0.2040 -0.0412
 2794PAPS   C5A31170  24.055  26.882   4.430 -0.1127 -0.0105 -0.0684
 2794PAPS   C1B31171  24.749  25.564   3.906  0.0392 -0.2908  0.1372
 2794PAPS   C2B31172  24.774  25.612   4.399  0.4936  0.2576 -0.0727
 2794PAPS   C3B31173  24.844  25.574   4.897 -0.0936  0.0462  0.1027
 2794PAPS   C4B31174  24.759  25.078   5.009 -0.0527  0.1467  0.0179
 2795PAPS   CNO31175  20.831  20.155   3.187 -0.0272 -0.1335  0.0828
 2795PAPS   PO431176  20.780  20.045   3.560  0.5514  0.1634 -0.0693
 2795PAPS   GL131177  20.856  20.301   3.977  0.1727 -0.2423  0.3364
 2795PAPS   GL231178  21.062  20.088   3.913  0.1870  0.0989 -0.1606
 2795PAPS   C1A31179  21.006  20.329   4.356 -0.0439 -0.1671  0.3229
 2795PAPS   D2A31180  21.137  20.228   4.688  0.3761  0.0305 -0.0039
 2795PAPS   D3A31181  20.974  20.485   4.891  0.2934  0.1310 -0.0345
 2795PAPS   D4A31182  21.001  20.903   5.002 -0.1971  0.6396  0.3206
 2795PAPS   C5A31183  21.257  21.257   4.824  0.0511 -0.3015  0.0735
 2795PAPS   C1B31184  21.348  20.070   4.284  0.1041 -0.0398  0.1107
 2795PAPS   C2B31185  21.714  20.032   4.665  0.1077  0.0893  0.2391
 2795PAPS   C3B31186  22.146  19.957   4.934  0.0464  0.2660 -0.0325
 2795PAPS   C4B31187  22.653  19.962   4.901  0.2410 -0.2663  0.2434
 2796PAPS   CNO31188  13.463  15.963   3.546 -0.3086 -0.3189  0.0334
 2796PAPS   PO431189  13.705  15.677   3.543 -0.2513 -0.1447 -0.1023
 2796PAPS   GL131190  14.092  15.525   3.782 -0.0110 -0.1152 -0.1281
 2796PAPS   GL231191  14.188  15.756   3.811 -0.0787 -0.1678 -0.3563
 2796PAPS   C1A31192  14.200  15.314   4.063 -0.2544  0.1292 -0.0714
 2796PAPS   D2A31193  14.192  15.131   4.428  0.1795 -0.0828  0.1127
 2796PAPS   D3A31194  14.222  14.824   4.730 -0.6068 -0.0511 -0.1012
 2796PAPS   D4A31195  14.357  15.107   4.994  0.4790 -0.3973  0.0775
 2796PAPS   C5A31196  14.597  15.145   5.309 -0.3780  0.0055  0.1710
 2796PAPS   C1B31197  14.313  15.889   4.234  0.1980 -0.1093  0.0479
 2796PAPS   C2B31198  14.338  16.034   4.697  0.0735  0.2698 -0.0408
 2796PAPS   C3B31199  14.454  16.124   5.187  0.0724  0.0011  0.2448
 2796PAPS   C4B31200  14.697  16.500   5.400 -0.0999  0.2028 -0.1360
 2797PAPS   CNO31201  23.116   3.094   3.411  0.0820 -0.2817  0.3844
 2797PAPS   PO431202  22.862   3.286   3.593 -0.0570  0.0420 -0.0415
 2797PAPS   GL131203  22.868   3.415   3.983  0.0609  0.2468 -0.2403
 2797PAPS   GL231204  22.616   3.536   3.954  0.0162 -0.0991  0.0720
 2797PAPS   C1A31205  22.953   3.097   4.125  0.0272  0.1655  0.0155
 2797PAPS   D2A31206  22.935   2.975   4.497  0.0943  0.0701 -0.1363
 2797PAPS   D3A31207  22.950   3.129   4.895  0.0090  0.0483 -0.0696
 2797PAPS   D4A31208  22.941   3.111   5.348  0.3205  0.3496  0.0137
 2797PAPS   C5A31209  23.321   2.989   5.653  0.0785  0.1427  0.3876
 2797PAPS   C1B31210  22.446   3.595   4.260  0.0457  0.2901 -0.0757
 2797PAPS   C2B31211  22.144   3.665   4.697  0.0008 -0.0325 -0.1769
 2797PAPS   C3B31212  22.059   3.623   5.208 -0.2521 -0.1490  0.3489
 2797PAPS   C4B31213  21.825   3.654   5.652 -0.2033  0.1367 -0.2726
 2798PAPS   CNO31214   5.042   5.258   3.444  0.1206 -0.0985  0.0393
 2798PAPS   PO431215   5.082   4.892   3.338  0.1133 -0.2912 -0.0467
 2798PAPS   GL131216   5.236   4.555   3.542 -0.1771  0.3158 -0.2135
 2798PAPS   GL231217   5.501   4.698   3.616  0.0817  0.1120 -0.1600
 2798PAPS   C1A31218   5.059   4.520   3.820 -0.4238 -0.2551 -0.1387
 2798PAPS   D2A31219   5.164   4.636   4.195  0.0065  0.1549 -0.5114
 2798PAPS   D3A31220   4.836   4.675   4.507 -0.2027  0.2131 -0.1669
 2798PAPS   D4A31221   4.529   5.001   4.406  0.1124  0.4345 -0.0389
 2798PAPS   C5A31222   4.447   5.180   4.852 -0.2551  0.0553  0.1200
 2798PAPS   C1B31223   5.345   4.957   3.914 -0.0979 -0.0590  0.0625
 2798PAPS   C2B31224   5.607   5.074   4.342 -0.0424  0.2086  0.0842
 2798PAPS   C3B31225   5.843   5.254   4.839 -0.0347 -0.0905 -0.0088
 2798PAPS   C4B31226   5.874   5.499   5.249  0.0787 -0.1699  0.0856
 2799PAPS   CNO31227  26.521  10.947   3.110 -0.3836  0.2498 -0.3490
 2799PAPS   PO431228  26.119  10.982   3.117 -0.2817  0.1036  0.0439
 2799PAPS   GL131229  26.120  10.943   3.457 -0.1534  0.2588  0.1034
 2799PAPS   GL231230  26.384  11.013   3.574  0.0483 -0.1188 -0.0283
 2799PAPS   C1A31231  26.054  10.852   3.846  0.0101  0.0586 -0.2032
 2799PAPS   D2A31232  25.811  10.667   4.095  0.3460  0.3685 -0.1569
 2799PAPS   D3A31233  25.774  10.731   4.580  0.0029  0.0680  0.0210
 2799PAPS   D4A31234  25.678  10.675   5.027  0.0777 -0.1769 -0.2618
 2799PAPS   C5A31235  25.941  10.472   5.321  0.0646  0.0639 -0.2161
 2799PAPS   C1B31236  26.421  11.372   3.855  0.2598  0.1098 -0.1278
 2799PAPS   C2B31237  26.524  11.658   4.266  0.0092 -0.2309 -0.0670
 2799PAPS   C3B31238  26.787  11.732   4.764  0.4027  0.0970 -0.2375
 2799PAPS   C4B31239  27.151  11.622   5.082  0.0480  0.2313  0.0794
 2800PAPS   CNO31240  15.590  14.680   3.158 -0.0428  0.2183  0.0771
 2800PAPS   PO431241  15.324  14.484   3.368  0.0095  0.2258 -0.1367
 2800PAPS   GL131242  15.265  14.261   3.704  0.2882 -0.1461  0.1321
 2800PAPS   GL231243  15.399  14.032   3.617  0.4413  0.1969  0.1708
 2800PAPS   C1A31244  15.167  14.372   3.992  0.4456  0.0652  0.0351
 2800PAPS   D2A31245  14.875  14.289   4.255  0.0401 -0.3781 -0.0896
 2800PAPS   D3A31246  14.960  14.294   4.734 -0.2104  0.1018 -0.1489
 2800PAPS   D4A31247  15.379  14.427   4.948 -0.2914 -0.2613 -0.0740
 2800PAPS   C5A31248  15.698  14.627   4.878  0.3241 -0.0623 -0.0483
 2800PAPS   C1B31249  15.557  13.730   3.829  0.1193  0.0016 -0.4321
 2800PAPS   C2B31250  15.582  13.452   4.309 -0.4471 -0.0915  0.1797
 2800PAPS   C3B31251  15.267  13.463   4.656  0.0822 -0.0936 -0.3356
 2800PAPS   C4B31252  14.935  13.373   4.947 -0.0005 -0.1401 -0.0414
 2801PAPS   CNO31253  19.570  14.901   3.258  0.0179  0.1695 -0.2407
 2801PAPS   PO431254  19.938  14.800   3.277 -0.2168  0.1209  0.1932
 2801PAPS   GL131255  20.178  14.749   3.581  0.1423 -0.0882 -0.1562
 2801PAPS   GL231256  20.224  14.436   3.421  0.1589  0.0876 -0.0526
 2801PAPS   C1A31257  20.074  14.667   3.932  0.1526  0.2899  0.0688
 2801PAPS   D2A31258  20.105  14.389   4.116  0.1732  0.1831 -0.1062
 2801PAPS   D3A31259  19.682  14.411   4.054  0.0788  0.2841  0.0324
 2801PAPS   D4A31260  19.267  14.205   3.895 -0.0272 -0.1507  0.0664
 2801PAPS   C5A31261  19.487  13.979   3.574  0.0774 -0.3897  0.0209
 2801PAPS   C1B31262  20.032  14.133   3.766 -0.1997 -0.0446  0.0479
 2801PAPS   C2B31263  20.066  13.866   4.206 -0.1980  0.0873 -0.0777
 2801PAPS   C3B31264  20.107  13.491   4.436 -0.1218 -0.0403  0.2497
 2801PAPS   C4B31265  20.125  13.252   4.913 -0.0668 -0.1394 -0.1388
 2802PAPS   CNO31266   9.805  18.931   3.215  0.2605 -0.2525 -0.0277
 2802PAPS   PO431267   9.882  18.573   3.330  0.1764  0.1737  0.0962
 2802PAPS   GL131268   9.933  18.608   3.810  0.2876  0.1600  0.5237
 2802PAPS   GL231269   9.800  18.330   3.888  0.0781  0.1077 -0.0145
 2802PAPS   C1A31270  10.166  18.860   3.946  0.4137 -0.0388  0.2731
 2802PAPS   D2A31271  10.213  18.898   4.315  0.1396 -0.1231 -0.1707
 2802PAPS   D3A31272  10.191  18.492   4.454 -0.1225 -0.2493 -0.0280
 2802PAPS   D4A31273  10.095  18.503   4.869 -0.0178  0.0551 -0.1538
 2802PAPS   C5A31274  10.301  18.415   5.248 -0.1001 -0.2021 -0.0421
 2802PAPS   C1B31275   9.676  18.378   4.313  0.1221 -0.1655 -0.1378
 2802PAPS   C2B31276   9.596  18.475   4.817 -0.1793  0.0107 -0.5128
 2802PAPS   C3B31277   9.751  18.469   5.288 -0.2168  0.0822  0.1242
 2802PAPS   C4B31278   9.913  18.776   5.636 -0.0780  0.2843 -0.1957
 2803PAPS   CNO31279  24.502  11.526   4.418 -0.1111  0.0037 -0.0113
 2803PAPS   PO431280  24.604  11.366   4.079  0.3873  0.0755 -0.2396
 2803PAPS   GL131281  24.425  10.971   4.230  0.0124  0.0866 -0.0309
 2803PAPS   GL231282  24.655  11.102   4.361  0.2202 -0.2605 -0.2116
 2803PAPS   C1A31283  24.152  11.049   4.519  0.0106 -0.0670 -0.1060
 2803PAPS   D2A31284  23.876  11.087   4.745  0.2445  0.1215  0.0365
 2803PAPS   D3A31285  23.910  11.172   5.182 -0.1849  0.3080  0.1796
 2803PAPS   D4A31286  23.612  11.070   5.458 -0.0301 -0.0698 -0.1193
 2803PAPS   C5A31287  23.649  10.751   5.836 -0.2370 -0.0755  0.0590
 2803PAPS   C1B31288  24.491  10.796   4.693 -0.1608 -0.1622 -0.1072
 2803PAPS   C2B31289  24.290  10.759   5.211 -0.3810 -0.0145 -0.0447
 2803PAPS   C3B31290  24.041  10.880   5.600  0.1082 -0.2328 -0.2476
 2803PAPS   C4B31291  24.208  10.711   5.981  0.0173  0.1205 -0.1006
 2804PAPS   CNO31292   3.433  21.730   3.566 -0.1365 -0.0438 -0.0871
 2804PAPS   PO431293   3.202  21.994   3.752 -0.5001  0.0939  0.0185
 2804PAPS   GL131294   3.130  21.906   4.137 -0.4586  0.0410 -0.5214
 2804PAPS   GL231295   3.361  21.850   4.182 -0.0611 -0.1841 -0.2823
 2804PAPS   C1A31296   3.038  21.995   4.493  0.0742 -0.5342  0.1477
 2804PAPS   D2A31297   2.812  22.014   4.776 -0.1367  0.0870 -0.2104
 2804PAPS   D3A31298   2.599  22.187   5.088 -0.0998  0.1256 -0.2944
 2804PAPS   D4A31299   2.640  22.199   5.530  0.2912 -0.1204  0.0430
 2804PAPS   C5A31300   2.151  22.144   5.468  0.1256 -0.0412  0.2793
 2804PAPS   C1B31301   3.510  21.909   4.599 -0.0576 -0.0702  0.3131
 2804PAPS   C2B31302   3.310  21.793   4.957 -0.2300  0.0457  0.2255
 2804PAPS   C3B31303   3.331  21.933   5.419  0.0614  0.0843 -0.0740
 2804PAPS   C4B31304   3.294  22.248   5.755 -0.0388 -0.1194  0.1938
 2805PAPS   CNO31305   1.869  22.277   3.697  0.1642  0.1664  0.1216
 2805PAPS   PO431306   1.602  22.001   3.834 -0.1327 -0.0117 -0.2571
 2805PAPS   GL131307   1.558  22.128   4.233  0.2635  0.2684 -0.0290
 2805PAPS   GL231308   1.646  22.376   4.127  0.1861 -0.2394  0.1077
 2805PAPS   C1A31309   1.306  21.907   4.367 -0.0998 -0.1089 -0.1044
 2805PAPS   D2A31310   1.484  21.718   4.716 -0.3431  0.6324 -0.0273
 2805PAPS   D3A31311   1.658  21.568   4.371  0.4173 -0.1760 -0.0201
 2805PAPS   D4A31312   1.371  21.530   4.082 -0.0785  0.4039  0.2615
 2805PAPS   C5A31313   1.042  21.469   4.413 -0.0120  0.2138 -0.4511
 2805PAPS   C1B31314   1.530  22.536   4.545 -0.0407  0.4753  0.0293
 2805PAPS   C2B31315   1.482  22.567   5.087 -0.1913 -0.0863  0.1566
 2805PAPS   C3B31316   1.799  22.574   5.478  0.0222 -0.0768  0.2631
 2805PAPS   C4B31317   2.162  22.605   5.805  0.2898  0.2061  0.0004
 2806PAPS   CNO31318  26.808  16.637   3.233  0.3612 -0.2424  0.0316
 2806PAPS   PO431319  27.001  16.792   3.471 -0.0763 -0.1232 -0.1152
 2806PAPS   GL131320  27.041  16.538   3.720  0.3414  0.2594 -0.3052
 2806PAPS   GL231321  27.309  16.623   3.854 -0.1637 -0.1392  0.0987
 2806PAPS   C1A31322  26.827  16.263   3.963 -0.2626 -0.1911 -0.1519
 2806PAPS   D2A31323  26.889  16.015   4.244  0.3191  0.3021  0.2336
 2806PAPS   D3A31324  27.025  16.107   4.641  0.2766 -0.1036  0.1409
 2806PAPS   D4A31325  27.097  16.490   4.916  0.2365 -0.1447 -0.2250
 2806PAPS   C5A31326  26.851  16.480   5.361 -0.1772 -0.2609  0.1341
 2806PAPS   C1B31327  27.296  16.769   4.258  0.2628 -0.3035  0.3717
 2806PAPS   C2B31328  27.379  16.912   4.715  0.0831  0.0105 -0.0897
 2806PAPS   C3B31329  27.527  16.786   5.137 -0.0049 -0.3323 -0.0921
 2806PAPS   C4B31330  27.319  16.846   5.586  0.3626 -0.0931  0.1372
 2807PAPS   CNO31331  19.590  15.412   3.290 -0.1741 -0.1916 -0.0163
 2807PAPS   PO431332  19.751  15.746   3.409 -0.0272  0.1303 -0.3285
 2807PAPS   GL131333  19.765  15.576   3.842 -0.0158 -0.0660  0.0279
 2807PAPS   GL231334  19.755  15.912   3.909  0.0900  0.1410  0.2883
 2807PAPS   C1A31335  19.694  15.361   4.135 -0.2616 -0.1983 -0.1243
 2807PAPS   D2A31336  19.741  14.990   4.143 -0.5419  0.1317 -0.0985
 2807PAPS   D3A31337  19.721  14.677   4.478  0.2547  0.1334  0.2557
 2807PAPS   D4A31338  19.611  14.351   4.832  0.4268  0.1935 -0.1520
 2807PAPS   C5A31339  19.238  14.390   5.148 -0.5300 -0.0694  0.1759
 2807PAPS   C1B31340  19.870  15.835   4.332  0.1652 -0.0459  0.1923
 2807PAPS   C2B31341  20.182  15.751   4.723 -0.1213  0.0674  0.1682
 2807PAPS   C3B31342  20.409  15.889   5.104  0.0815 -0.1971 -0.2643
 2807PAPS   C4B31343  20.683  15.881   5.571 -0.3073  0.1882  0.1307
 2808PAPS   CNO31344   9.773  20.877   2.919  0.1198 -0.2657 -0.0220
 2808PAPS   PO431345   9.779  21.196   3.147  0.1418  0.0798  0.1891
 2808PAPS   GL131346   9.818  21.180   3.577 -0.1410  0.1560 -0.0290
 2808PAPS   GL231347   9.809  21.490   3.617  0.0765  0.0594  0.5274
 2808PAPS   C1A31348   9.907  20.918   3.795 -0.2187  0.1459  0.0863
 2808PAPS   D2A31349  10.070  20.796   4.101 -0.0234 -0.1471 -0.1641
 2808PAPS   D3A31350  10.446  20.558   4.170  0.3121  0.0463  0.0378
 2808PAPS   D4A31351  10.148  20.255   4.039  0.3247  0.0832  0.0676
 2808PAPS   C5A31352   9.813  20.427   3.820  0.2883 -0.1555 -0.0659
 2808PAPS   C1B31353   9.629  21.628   3.990  0.0603  0.0614 -0.0611
 2808PAPS   C2B31354   9.819  21.919   4.371 -0.3326  0.4202  0.5042
 2808PAPS   C3B31355   9.767  22.089   4.829 -0.0516 -0.0443  0.0421
 2808PAPS   C4B31356   9.783  22.092   5.372 -0.2324 -0.0637  0.0884
 2809PAPS   CNO31357   1.842  13.210   3.731 -0.2991 -0.5045  0.0349
 2809PAPS   PO431358   2.065  13.551   3.610 -0.0838  0.1329  0.1322
 2809PAPS   GL131359   2.339  13.755   3.872  0.0866 -0.2992 -0.0928
 2809PAPS   GL231360   2.355  13.449   3.988 -0.1071  0.1934 -0.2485
 2809PAPS   C1A31361   2.697  13.862   3.929  0.1149 -0.0431 -0.0587
 2809PAPS   D2A31362   3.025  13.998   4.028 -0.1926 -0.0546 -0.0331
 2809PAPS   D3A31363   2.778  13.972   4.405 -0.2819  0.2429 -0.0417
 2809PAPS   D4A31364   3.004  13.909   4.809 -0.2220  0.2151  0.2145
 2809PAPS   C5A31365   2.954  14.106   5.230 -0.4080 -0.0080  0.0790
 2809PAPS   C1B31366   2.307  13.503   4.470 -0.2434 -0.1036  0.2787
 2809PAPS   C2B31367   2.569  13.680   4.930  0.1688  0.0381 -0.2498
 2809PAPS   C3B31368   2.692  13.666   5.427  0.1658  0.0286  0.0662
 2809PAPS   C4B31369   2.759  13.970   5.830 -0.1234  0.1646  0.0956
 2810PAPS   CNO31370   7.348  27.207   4.013 -0.1096 -0.1577 -0.0155
 2810PAPS   PO431371   7.177  26.876   3.860 -0.0131 -0.2633  0.0910
 2810PAPS   GL131372   7.119  26.612   4.177 -0.0430  0.0760  0.1123
 2810PAPS   GL231373   7.355  26.817   4.368  0.5146  0.2153 -0.2642
 2810PAPS   C1A31374   6.969  26.606   4.524 -0.4959  0.2288  0.1525
 2810PAPS   D2A31375   6.781  26.594   4.876  0.1306  0.0364  0.1183
 2810PAPS   D3A31376   6.635  26.948   5.150 -0.1299 -0.0220  0.0799
 2810PAPS   D4A31377   6.841  27.392   5.234 -0.0772  0.0473  0.0162
 2810PAPS   C5A31378   7.139  27.563   4.879 -0.0208 -0.2967  0.1703
 2810PAPS   C1B31379   7.275  26.713   4.819 -0.2401 -0.0152 -0.3283
 2810PAPS   C2B31380   7.642  26.790   5.226 -0.1327  0.1801 -0.1526
 2810PAPS   C3B31381   7.943  26.583   5.570  0.0879  0.1664  0.1378
 2810PAPS   C4B31382   8.287  26.278   5.848 -0.0111 -0.0078 -0.1122
 2811PAPS   CNO31383  21.694   0.333   3.097 -0.3767 -0.0922 -0.0090
 2811PAPS   PO431384  21.862   0.597   3.332  0.1949  0.1186 -0.1187
 2811PAPS   GL131385  22.028   0.497   3.688  0.2309  0.2926 -0.1132
 2811PAPS   GL231386  21.775   0.578   3.794  0.1012 -0.1192 -0.3349
 2811PAPS   C1A31387  22.382   0.492   3.830  0.1430  0.3105  0.3826
 2811PAPS   D2A31388  22.685   0.280   4.006  0.0587  0.1777  0.0743
 2811PAPS   D3A31389  22.862   0.479   4.372  0.1075  0.0535 -0.2684
 2811PAPS   D4A31390  23.319   0.612   4.349  0.0510  0.3883 -0.0808
 2811PAPS   C5A31391  23.789   0.762   4.410 -0.1933 -0.0860  0.2723
 2811PAPS   C1B31392  21.602   0.588   4.198  0.0914  0.0791  0.0716
 2811PAPS   C2B31393  21.529   0.676   4.738  0.4758  0.0282 -0.0022
 2811PAPS   C3B31394  21.788   0.690   5.100 -0.1339 -0.0027 -0.3674
 2811PAPS   C4B31395  21.936   0.479   5.515 -0.1344 -0.1212  0.0020
 2812PAPS   CNO31396  26.310  22.385   2.982  0.0177 -0.1010 -0.1827
 2812PAPS   PO431397  26.361  22.657   3.222 -0.3251 -0.0615 -0.4587
 2812PAPS   GL131398  26.464  22.745   3.666  0.0021 -0.1593  0.2278
 2812PAPS   GL231399  26.181  22.784   3.714 -0.1111  0.4325 -0.0474
 2812PAPS   C1A31400  26.566  22.997   3.861 -0.0386  0.1347 -0.4148
 2812PAPS   D2A31401  26.381  23.314   3.971 -0.1986 -0.1469  0.1621
 2812PAPS   D3A31402  26.737  23.579   4.085 -0.2092  0.3894  0.2205
 2812PAPS   D4A31403  26.875  23.967   4.000 -0.1269 -0.0063  0.1329
 2812PAPS   C5A31404  26.772  24.097   3.565  0.0536  0.2062 -0.2288
 2812PAPS   C1B31405  26.213  22.881   4.138  0.0172  0.1389  0.1395
 2812PAPS   C2B31406  26.405  22.897   4.680 -0.0175 -0.1791  0.0477
 2812PAPS   C3B31407  26.672  22.853   5.079  0.0208 -0.2685  0.1446
 2812PAPS   C4B31408  27.021  22.703   5.365  0.1985 -0.1468  0.0583
 2813PAPS   CNO31409   2.851   3.414   3.533 -0.2196 -0.0002  0.2032
 2813PAPS   PO431410   2.683   3.743   3.630 -0.2689 -0.1312  0.1632
 2813PAPS   GL131411   2.442   3.747   3.942  0.0684 -0.3084 -0.2113
 2813PAPS   GL231412   2.558   3.446   4.030  0.4104 -0.2902 -0.1788
 2813PAPS   C1A31413   2.531   3.912   4.263  0.0499 -0.0475 -0.4835
 2813PAPS   D2A31414   2.556   3.988   4.678  0.3126 -0.0736 -0.0322
 2813PAPS   D3A31415   2.444   4.233   5.035 -0.1582  0.1369 -0.1205
 2813PAPS   D4A31416   2.080   4.449   5.263  0.1959  0.0191  0.0293
 2813PAPS   C5A31417   2.000   4.300   4.781 -0.1956  0.2225 -0.0116
 2813PAPS   C1B31418   2.402   3.150   4.297 -0.2738 -0.0794 -0.1969
 2813PAPS   C2B31419   2.487   3.055   4.824 -0.1039  0.3463  0.0188
 2813PAPS   C3B31420   2.740   3.213   5.166 -0.0612 -0.1987 -0.3400
 2813PAPS   C4B31421   3.107   3.273   5.475 -0.1847 -0.0795 -0.0661
 2814PAPS   CNO31422  13.073   8.184   3.648  0.0380  0.1161 -0.0806
 2814PAPS   PO431423  13.338   8.309   3.947 -0.2716 -0.0620  0.0596
 2814PAPS   GL131424  13.458   8.378   4.296 -0.1431  0.2366  0.3471
 2814PAPS   GL231425  13.704   8.600   4.273  0.0901  0.0346  0.4199
 2814PAPS   C1A31426  13.455   8.426   4.638 -0.0366  0.3209  0.0050
 2814PAPS   D2A31427  13.456   8.592   4.998  0.0681  0.1183 -0.3198
 2814PAPS   D3A31428  13.331   8.170   5.105  0.2327  0.2027 -0.0670
 2814PAPS   D4A31429  13.088   7.879   5.348 -0.0009 -0.0635  0.3832
 2814PAPS   C5A31430  13.444   8.067   5.576  0.1519 -0.1741 -0.0857
 2814PAPS   C1B31431  13.855   8.664   4.717 -0.1956  0.0456 -0.4221
 2814PAPS   C2B31432  13.962   8.694   5.180  0.3501  0.1487 -0.1910
 2814PAPS   C3B31433  14.056   8.854   5.600  0.1813 -0.0392  0.3012
 2814PAPS   C4B31434  14.195   9.056   6.038  0.2681  0.0498  0.1842
 2815PAPS   CNO31435  16.369   6.259   2.881 -0.2950  0.1455  0.0523
 2815PAPS   PO431436  16.355   6.282   3.229  0.0924 -0.0452  0.1408
 2815PAPS   GL131437  16.590   6.574   3.492  0.1861 -0.0919  0.0203
 2815PAPS   GL231438  16.825   6.355   3.603 -0.1876  0.7130  0.0310
 2815PAPS   C1A31439  16.656   6.782   3.804 -0.2382  0.2821  0.3978
 2815PAPS   D2A31440  16.589   7.121   3.687 -0.0789  0.0403  0.1106
 2815PAPS   D3A31441  16.244   7.414   3.753 -0.0613  0.1233  0.0524
 2815PAPS   D4A31442  15.797   7.430   3.828  0.0957 -0.0620  0.0083
 2815PAPS   C5A31443  15.874   7.063   4.169  0.0988 -0.2527  0.0293
 2815PAPS   C1B31444  17.082   6.292   3.973  0.1323 -0.0007  0.2132
 2815PAPS   C2B31445  17.145   6.178   4.464 -0.1378  0.3480 -0.3487
 2815PAPS   C3B31446  16.926   6.442   4.765 -0.0283  0.2978  0.5518
 2815PAPS   C4B31447  16.892   6.897   4.962 -0.0753 -0.2214  0.0131
 2816PAPS   CNO31448  16.409   2.915   3.139  0.1666 -0.0791  0.2131
 2816PAPS   PO431449  16.650   2.856   3.410 -0.0557 -0.2202 -0.0731
 2816PAPS   GL131450  16.505   2.648   3.813 -0.1871  0.0369  0.4424
 2816PAPS   GL231451  16.696   2.836   3.836 -0.0452 -0.2643  0.3173
 2816PAPS   C1A31452  16.318   2.703   4.103  0.2529  0.0027  0.0803
 2816PAPS   D2A31453  16.001   2.729   4.286 -0.0325  0.0190  0.0324
 2816PAPS   D3A31454  15.552   3.014   4.228  0.0348  0.0607  0.0319
 2816PAPS   D4A31455  15.137   3.186   4.183 -0.3177  0.3372  0.0668
 2816PAPS   C5A31456  14.985   3.611   4.249 -0.2276 -0.2911  0.0780
 2816PAPS   C1B31457  16.737   2.802   4.308  0.1557  0.0432 -0.1198
 2816PAPS   C2B31458  17.051   3.070   4.614 -0.2687 -0.0617  0.1008
 2816PAPS   C3B31459  16.881   3.389   4.860  0.3616  0.0543 -0.3071
 2816PAPS   C4B31460  16.560   3.440   5.240 -0.0677 -0.1375  0.0764
 2817PAPS   CNO31461   0.846  14.559   3.559  0.1565 -0.1571 -0.0492
 2817PAPS   PO431462   0.489  14.544   3.573  0.0766 -0.2314 -0.1059
 2817PAPS   GL131463   0.496  14.331   3.984  0.0860 -0.3204  0.1938
 2817PAPS   GL231464   0.224  14.444   3.949 -0.4955 -0.1965 -0.3904
 2817PAPS   C1A31465   0.667  14.319   4.266  0.0128 -0.4720  0.0549
 2817PAPS   D2A31466   0.646  14.335   4.675  0.2186  0.0880  0.1107
 2817PAPS   D3A31467   0.519  14.369   5.054 -0.1099  0.1789  0.2173
 2817PAPS   D4A31468   0.119  14.457   5.156  0.0632 -0.1797  0.2514
 2817PAPS   C5A31469  -0.095  14.810   5.430 -0.2875  0.0429  0.1884
 2817PAPS   C1B31470  -0.084  14.403   4.268  0.1370  0.1349  0.0807
 2817PAPS   C2B31471  -0.285  14.293   4.745  0.1954  0.1026 -0.3011
 2817PAPS   C3B31472  -0.421  14.324   5.200 -0.1038 -0.1034 -0.2360
 2817PAPS   C4B31473  -0.599  14.447   5.634  0.0595 -0.2227  0.0955
 2818PAPS   CNO31474  16.833   1.467   3.771  0.0806  0.0040  0.0723
 2818PAPS   PO431475  17.024   1.126   3.885  0.1947 -0.0419 -0.0283
 2818PAPS   GL131476  17.198   1.025   4.173  0.1395  0.1116 -0.2740
 2818PAPS   GL231477  16.939   0.759   4.264 -0.1356 -0.3604  0.2877
 2818PAPS   C1A31478  17.275   1.318   4.423  0.2303 -0.1470 -0.0733
 2818PAPS   D2A31479  17.313   1.384   4.798  0.1826  0.0326  0.1167
 2818PAPS   D3A31480  17.340   1.276   5.176  0.1840 -0.1872  0.0326
 2818PAPS   D4A31481  17.679   1.171   5.493  0.2227 -0.1763  0.0991
 2818PAPS   C5A31482  18.102   1.360   5.656  0.1427  0.2808 -0.1364
 2818PAPS   C1B31483  16.798   0.799   4.631  0.2981  0.1037  0.1648
 2818PAPS   C2B31484  16.691   0.704   5.103  0.2171  0.0438 -0.5275
 2818PAPS   C3B31485  16.973   0.873   5.555 -0.2116 -0.1184  0.1269
 2818PAPS   C4B31486  17.315   1.106   5.798 -0.0915  0.1074 -0.0693
 2819PAPS   CNO31487  18.505   3.385   3.198 -0.0484 -0.0142 -0.1539
 2819PAPS   PO431488  18.256   3.575   3.454 -0.0075 -0.0256 -0.0455
 2819PAPS   GL131489  18.203   3.601   3.825 -0.3419  0.2733  0.1806
 2819PAPS   GL231490  18.083   3.296   3.977  0.1232  0.0506  0.1231
 2819PAPS   C1A31491  18.295   3.805   4.135 -0.3561  0.3128 -0.0053
 2819PAPS   D2A31492  18.521   3.951   4.423  0.1131  0.0704  0.2574
 2819PAPS   D3A31493  18.495   4.091   4.827  0.4470  0.3044 -0.3061
 2819PAPS   D4A31494  18.120   4.131   4.988  0.1860  0.1699  0.0998
 2819PAPS   C5A31495  18.001   4.342   5.335  0.2275 -0.0563 -0.0320
 2819PAPS   C1B31496  18.145   3.411   4.409  0.0220 -0.0370 -0.0063
 2819PAPS   C2B31497  18.188   3.166   4.830 -0.0542 -0.1249 -0.0731
 2819PAPS   C3B31498  18.192   3.101   5.365 -0.0035 -0.1446 -0.1394
 2819PAPS   C4B31499  17.974   2.795   5.721  0.0698 -0.1659 -0.0960
 2820PAPS   CNO31500   1.678  24.200   3.477  0.0508  0.0028  0.1692
 2820PAPS   PO431501   1.503  24.385   3.735  0.1271 -0.3400 -0.1613
 2820PAPS   GL131502   1.561  24.307   4.118  0.2382 -0.0975  0.1589
 2820PAPS   GL231503   1.272  24.348   4.235 -0.3623 -0.1420 -0.0381
 2820PAPS   C1A31504   1.724  24.040   4.297  0.1357 -0.4743  0.0077
 2820PAPS   D2A31505   1.402  23.831   4.296 -0.0342 -0.0097  0.0877
 2820PAPS   D3A31506   1.051  23.613   4.155 -0.0335 -0.1583 -0.0969
 2820PAPS   D4A31507   0.607  23.559   4.323  0.3532  0.0372 -0.2849
 2820PAPS   C5A31508   0.260  23.908   4.345  0.1834  0.0821  0.0460
 2820PAPS   C1B31509   1.377  24.518   4.615 -0.2060  0.2125 -0.0190
 2820PAPS   C2B31510   1.518  24.728   5.111  0.1574  0.0070 -0.1029
 2820PAPS   C3B31511   1.745  24.924   5.437 -0.0195 -0.1533 -0.0470
 2820PAPS   C4B31512   1.737  25.364   5.625  0.3004  0.0426 -0.0360
 2821PAPS   CNO31513  17.766  18.478   3.478  0.3364 -0.0486 -0.1662
 2821PAPS   PO431514  17.547  18.698   3.654 -0.1734 -0.2010 -0.1416
 2821PAPS   GL131515  17.674  18.998   3.952 -0.1689  0.3900  0.0271
 2821PAPS   GL231516  17.924  19.016   3.976 -0.0499 -0.0390 -0.3168
 2821PAPS   C1A31517  17.498  19.064   4.253  0.1186  0.0187 -0.0522
 2821PAPS   D2A31518  17.307  19.176   4.613 -0.1208  0.0222  0.0065
 2821PAPS   D3A31519  17.326  19.112   4.997  0.1974 -0.0246 -0.0821
 2821PAPS   D4A31520  17.383  19.558   4.968  0.0889 -0.0275 -0.1047
 2821PAPS   C5A31521  17.367  19.788   5.381  0.2201 -0.1097  0.0335
 2821PAPS   C1B31522  17.906  19.203   4.397  0.2749 -0.4165 -0.3428
 2821PAPS   C2B31523  17.761  19.217   4.908  0.0091  0.1975 -0.2527
 2821PAPS   C3B31524  17.790  19.015   5.384  0.1765 -0.1182  0.0596
 2821PAPS   C4B31525  17.927  18.890   5.840  0.0178 -0.1534  0.0053
 2822PAPS   CNO31526   6.743   6.710   3.348  0.2957  0.2222  0.0096
 2822PAPS   PO431527   6.419   6.880   3.320  0.1225 -0.1684 -0.0348
 2822PAPS   GL131528   6.284   6.932   3.723 -0.0867 -0.1479  0.1741
 2822PAPS   GL231529   6.271   6.715   3.816 -0.0387  0.2378  0.0510
 2822PAPS   C1A31530   6.332   7.267   3.938  0.2521  0.2954 -0.0662
 2822PAPS   D2A31531   6.635   7.506   3.994  0.1003  0.0641  0.2166
 2822PAPS   D3A31532   6.835   7.617   4.357 -0.1104 -0.2195 -0.0681
 2822PAPS   D4A31533   6.750   7.705   4.756  0.0652 -0.2408  0.2039
 2822PAPS   C5A31534   6.561   7.525   5.158 -0.1322 -0.0007  0.0203
 2822PAPS   C1B31535   6.346   6.489   4.225  0.0265  0.0584 -0.1859
 2822PAPS   C2B31536   6.396   6.383   4.772 -0.1508  0.1756 -0.0819
 2822PAPS   C3B31537   6.630   6.026   5.034 -0.1610  0.3200 -0.2085
 2822PAPS   C4B31538   6.410   5.735   5.310 -0.0869 -0.2707 -0.1927
 2823PAPS   CNO31539   8.578   7.283   3.307 -0.1132 -0.0760  0.1093
 2823PAPS   PO431540   8.798   7.478   3.489 -0.1522  0.0673  0.1925
 2823PAPS   GL131541   8.888   7.088   3.727 -0.0419  0.3452 -0.2877
 2823PAPS   GL231542   8.658   6.995   3.631  0.0153 -0.2828  0.0407
 2823PAPS   C1A31543   8.999   7.070   4.067  0.1721  0.2693 -0.1073
 2823PAPS   D2A31544   9.155   7.414   4.238 -0.0905 -0.1175 -0.1235
 2823PAPS   D3A31545   9.241   7.588   4.683 -0.0286  0.0316 -0.1540
 2823PAPS   D4A31546   9.699   7.715   4.742  0.2635  0.1305  0.1646
 2823PAPS   C5A31547   9.594   7.573   4.308  0.1995  0.0998  0.1456
 2823PAPS   C1B31548   8.424   6.936   3.980  0.0053 -0.1787  0.2910
 2823PAPS   C2B31549   8.285   6.770   4.440  0.1617  0.5162  0.0909
 2823PAPS   C3B31550   8.190   6.568   4.867 -0.2936  0.2344  0.2117
 2823PAPS   C4B31551   8.030   6.598   5.310 -0.0770 -0.1294  0.1572
 2824PAPS   CNO31552   8.145  25.911   3.362 -0.1866 -0.0667  0.1496
 2824PAPS   PO431553   8.376  26.071   3.649  0.1653  0.2421  0.1664
 2824PAPS   GL131554   8.199  26.028   3.993  0.1802 -0.1608  0.3271
 2824PAPS   GL231555   8.391  25.892   4.196 -0.0262  0.1143  0.2579
 2824PAPS   C1A31556   7.852  26.074   4.099  0.0939  0.1942 -0.1863
 2824PAPS   D2A31557   7.573  25.745   4.093 -0.3175 -0.0648 -0.3836
 2824PAPS   D3A31558   7.685  25.518   4.494  0.0436  0.0348 -0.0433
 2824PAPS   D4A31559   7.989  25.263   4.703 -0.0914  0.0988  0.1350
 2824PAPS   C5A31560   8.143  25.371   5.178  0.1993  0.0882 -0.3178
 2824PAPS   C1B31561   8.695  26.133   4.407  0.0112  0.1214 -0.1309
 2824PAPS   C2B31562   9.059  26.468   4.701  0.2365  0.2383 -0.0737
 2824PAPS   C3B31563   9.323  26.755   4.920  0.1935  0.0345 -0.0254
 2824PAPS   C4B31564   9.751  26.790   5.283  0.0397  0.0128  0.0755
 2825PAPS   CNO31565  26.186  19.592   3.445  0.0194  0.1313 -0.3402
 2825PAPS   PO431566  26.452  19.706   3.730 -0.0824  0.1887 -0.0465
 2825PAPS   GL131567  26.309  19.556   4.132  0.0597 -0.1315  0.0732
 2825PAPS   GL231568  26.194  19.842   4.154  0.0306 -0.0108 -0.0536
 2825PAPS   C1A31569  26.201  19.278   4.379 -0.3192 -0.1959  0.4300
 2825PAPS   D2A31570  26.160  19.025   4.684 -0.3199 -0.0736 -0.1365
 2825PAPS   D3A31571  26.142  18.833   5.100 -0.0870  0.0425 -0.1698
 2825PAPS   D4A31572  25.725  18.655   5.247  0.0268  0.0759 -0.2367
 2825PAPS   C5A31573  25.566  19.020   4.974 -0.1429 -0.0544 -0.0528
 2825PAPS   C1B31574  26.199  20.006   4.624  0.1454 -0.3717 -0.1672
 2825PAPS   C2B31575  26.021  19.690   4.996  0.1316  0.0503  0.0015
 2825PAPS   C3B31576  25.960  19.287   5.241 -0.2001 -0.0532  0.0510
 2825PAPS   C4B31577  26.157  19.085   5.571 -0.2351 -0.1160 -0.0649
 2826PAPS   CNO31578  13.218  18.175   3.077  0.0886  0.1331  0.0866
 2826PAPS   PO431579  12.910  18.170   3.274 -0.1474 -0.0171  0.2589
 2826PAPS   GL131580  12.928  18.324   3.657  0.3208 -0.2724 -0.1184
 2826PAPS   GL231581  12.962  18.026   3.762 -0.1869  0.5266 -0.1952
 2826PAPS   C1A31582  13.238  18.468   3.868  0.1404 -0.1634 -0.2176
 2826PAPS   D2A31583  13.395  18.867   3.914  0.2902 -0.2409 -0.0002
 2826PAPS   D3A31584  13.406  18.854   4.368  0.1702  0.4492  0.1038
 2826PAPS   D4A31585  13.420  19.274   4.585 -0.0717 -0.0912 -0.2177
 2826PAPS   C5A31586  13.791  19.343   4.865 -0.2041 -0.0869  0.0504
 2826PAPS   C1B31587  13.249  18.061   4.065 -0.0915  0.0471 -0.0530
 2826PAPS   C2B31588  13.422  17.946   4.558  0.0649  0.2825  0.2159
 2826PAPS   C3B31589  13.713  17.809   4.923 -0.2083  0.4036 -0.1238
 2826PAPS   C4B31590  13.760  17.810   5.389  0.0178  0.0150 -0.1058
 2827PAPS   CNO31591  25.873  19.806   3.817  0.0879  0.0805 -0.2472
 2827PAPS   PO431592  25.622  19.567   3.625 -0.0418  0.1455 -0.2559
 2827PAPS   GL131593  25.538  19.373   4.060 -0.0120  0.0438 -0.1129
 2827PAPS   GL231594  25.832  19.453   4.114  0.0919  0.1312 -0.1475
 2827PAPS   C1A31595  25.392  19.060   4.091 -0.3292  0.0214 -0.0272
 2827PAPS   D2A31596  25.081  18.810   4.064  0.1840  0.1011 -0.0802
 2827PAPS   D3A31597  24.816  18.399   4.137  0.0014  0.1727  0.0027
 2827PAPS   D4A31598  24.962  18.384   4.613 -0.2838 -0.1775 -0.2985
 2827PAPS   C5A31599  24.853  18.549   5.067  0.1790  0.1810  0.0412
 2827PAPS   C1B31600  25.770  19.526   4.631 -0.2432 -0.0633 -0.1068
 2827PAPS   C2B31601  25.335  19.623   4.944  0.0088  0.1393 -0.0572
 2827PAPS   C3B31602  24.887  19.420   5.079 -0.1337  0.0525 -0.4761
 2827PAPS   C4B31603  24.466  19.499   4.939  0.1169  0.2308  0.1884
 2828PAPS   CNO31604  15.861  22.610   3.764  0.0334 -0.1804  0.0603
 2828PAPS   PO431605  16.083  22.275   3.749  0.0956 -0.2021 -0.0313
 2828PAPS   GL131606  16.143  22.328   4.179 -0.4312 -0.2643  0.1581
 2828PAPS   GL231607  15.865  22.183   4.172  0.2410 -0.0652 -0.0348
 2828PAPS   C1A31608  16.183  22.520   4.481 -0.0982  0.1511  0.2866
 2828PAPS   D2A31609  16.168  22.654   4.890 -0.0186  0.0318 -0.1049
 2828PAPS   D3A31610  16.209  22.253   4.844  0.2556 -0.0386  0.0620
 2828PAPS   D4A31611  16.356  22.017   4.488  0.1496  0.1611 -0.1775
 2828PAPS   C5A31612  16.075  21.763   4.802 -0.0520  0.0940 -0.2366
 2828PAPS   C1B31613  15.783  22.132   4.580 -0.0883  0.2290 -0.0268
 2828PAPS   C2B31614  15.627  21.905   5.024  0.1036  0.4167  0.0376
 2828PAPS   C3B31615  15.964  21.918   5.302 -0.0765  0.0058 -0.1391
 2828PAPS   C4B31616  16.328  21.659   5.545  0.1439 -0.2710 -0.1353
 2829PAPS   CNO31617  20.954  21.901   3.589 -0.0433  0.0439  0.1321
 2829PAPS   PO431618  20.754  22.211   3.591  0.0213 -0.0731  0.3442
 2829PAPS   GL131619  20.675  22.397   3.954 -0.1224  0.0959  0.0119
 2829PAPS   GL231620  20.682  22.665   4.044 -0.0180  0.0638  0.0681
 2829PAPS   C1A31621  20.570  22.143   4.141 -0.2957 -0.0491  0.0916
 2829PAPS   D2A31622  20.726  22.053   4.473  0.2746 -0.1290  0.0220
 2829PAPS   D3A31623  21.000  21.736   4.589 -0.0755  0.1941 -0.1659
 2829PAPS   D4A31624  21.225  21.377   4.346 -0.1158  0.0452  0.0010
 2829PAPS   C5A31625  21.126  20.918   4.316  0.2985  0.3373 -0.1288
 2829PAPS   C1B31626  20.838  22.487   4.313 -0.2893 -0.1387 -0.0970
 2829PAPS   C2B31627  21.186  22.213   4.593  0.2501  0.0373  0.0239
 2829PAPS   C3B31628  21.372  21.989   5.010 -0.0896  0.2169  0.1353
 2829PAPS   C4B31629  21.611  21.573   5.204  0.1269  0.1827 -0.0255
 2830PAPS   CNO31630  11.534  25.182   3.321 -0.0754 -0.0935  0.0339
 2830PAPS   PO431631  11.727  25.120   3.617  0.0396  0.0074 -0.2016
 2830PAPS   GL131632  11.585  25.003   3.979  0.0483 -0.0444 -0.0544
 2830PAPS   GL231633  11.803  25.277   4.088  0.1090 -0.0924 -0.2159
 2830PAPS   C1A31634  11.264  24.821   4.056  0.0689  0.3786 -0.5360
 2830PAPS   D2A31635  11.174  24.754   4.404 -0.0888 -0.0602 -0.2869
 2830PAPS   D3A31636  11.527  25.041   4.473  0.0234  0.1955 -0.4376
 2830PAPS   D4A31637  11.402  25.017   4.863  0.1051  0.1158  0.3844
 2830PAPS   C5A31638  11.177  24.576   5.015  0.0648 -0.1940  0.1190
 2830PAPS   C1B31639  12.076  25.141   4.420 -0.1297  0.0940  0.1757
 2830PAPS   C2B31640  12.376  24.961   4.838  0.1929 -0.3007 -0.0805
 2830PAPS   C3B31641  12.566  24.929   5.249 -0.2321  0.0038  0.1295
 2830PAPS   C4B31642  12.774  24.678   5.662  0.1752  0.1421  0.2440
 2831PAPS   CNO31643  27.366  12.464   3.631  0.0898 -0.1430 -0.1086
 2831PAPS   PO431644  27.485  12.825   3.575 -0.0886  0.0703 -0.1108
 2831PAPS   GL131645  27.517  12.987   3.945 -0.1942  0.1146 -0.0092
 2831PAPS   GL231646  27.438  12.667   4.084 -0.1747 -0.3035  0.1554
 2831PAPS   C1A31647  27.735  13.078   4.223  0.2722  0.2880  0.0895
 2831PAPS   D2A31648  27.847  13.122   4.601  0.2607  0.3455 -0.4768
 2831PAPS   D3A31649  27.488  13.338   4.808 -0.1752  0.2469  0.4078
 2831PAPS   D4A31650  27.553  13.520   5.200 -0.0421  0.0251 -0.0793
 2831PAPS   C5A31651  27.486  13.684   5.702  0.2388  0.2790  0.3963
 2831PAPS   C1B31652  27.544  12.518   4.443 -0.1063  0.2301 -0.0789
 2831PAPS   C2B31653  27.705  12.326   4.874  0.3538 -0.3724  0.0763
 2831PAPS   C3B31654  27.799  12.237   5.351  0.0614  0.2495 -0.0203
 2831PAPS   C4B31655  27.942  12.180   5.739 -0.1846  0.1819 -0.1599
 2832PAPS   CNO31656  20.936   0.455   3.320 -0.0923 -0.0035 -0.0367
 2832PAPS   PO431657  21.220   0.170   3.381  0.1250 -0.1186  0.1524
 2832PAPS   GL131658  21.352   0.165   3.849  0.0307  0.1553  0.4156
 2832PAPS   GL231659  21.113  -0.063   3.833 -0.1168 -0.1367 -0.3272
 2832PAPS   C1A31660  21.347   0.179   4.222 -0.1081 -0.0700 -0.3076
 2832PAPS   D2A31661  21.556   0.260   4.528  0.1429  0.0810 -0.0203
 2832PAPS   D3A31662  21.561   0.256   4.957  0.1011  0.0017 -0.0417
 2832PAPS   D4A31663  21.097   0.120   4.993 -0.1016 -0.1381 -0.2429
 2832PAPS   C5A31664  20.881   0.227   5.410  0.0591 -0.0716 -0.2119
 2832PAPS   C1B31665  20.958  -0.046   4.192 -0.1179 -0.2656  0.0751
 2832PAPS   C2B31666  20.741  -0.094   4.686  0.0320 -0.0661  0.0622
 2832PAPS   C3B31667  20.473   0.061   5.084  0.0514 -0.0856  0.0065
 2832PAPS   C4B31668  20.099   0.148   5.321  0.1113  0.0789 -0.1696
 2833PAPS   CNO31669  25.005  26.783   3.039 -0.2206  0.1158  0.1222
 2833PAPS   PO431670  25.183  27.038   3.254  0.1384  0.1736  0.1351
 2833PAPS   GL131671  25.104  27.081   3.608 -0.5447  0.1728 -0.1253
 2833PAPS   GL231672  24.786  26.927   3.589 -0.0176  0.2256  0.2704
 2833PAPS   C1A31673  25.284  27.160   3.900  0.0640  0.1244  0.2597
 2833PAPS   D2A31674  25.410  27.239   4.239  0.0083 -0.0026  0.0532
 2833PAPS   D3A31675  25.776  27.076   4.358 -0.2020 -0.3383  0.1573
 2833PAPS   D4A31676  25.764  27.423   4.675  0.1796 -0.2227 -0.1566
 2833PAPS   C5A31677  25.692  27.187   5.062  0.1791 -0.3200  0.1348
 2833PAPS   C1B31678  24.676  26.851   3.974  0.3639  0.0313 -0.1906
 2833PAPS   C2B31679  24.803  26.812   4.416 -0.4746 -0.1897  0.1722
 2833PAPS   C3B31680  25.090  26.555   4.771  0.2077 -0.1528  0.1979
 2833PAPS   C4B31681  25.288  26.242   4.977 -0.0290 -0.2071 -0.0057
 2834PAPS   CNO31682  20.614  18.375   3.203  0.0277  0.1923 -0.1311
 2834PAPS   PO431683  20.427  18.574   3.478  0.2177 -0.3421 -0.0943
 2834PAPS   GL131684  20.610  18.492   3.905 -0.0644  0.3310  0.2055
 2834PAPS   GL231685  20.738  18.739   3.955 -0.3789 -0.4497  0.1672
 2834PAPS   C1A31686  20.775  18.134   3.955 -0.1794 -0.1268  0.1565
 2834PAPS   D2A31687  21.071  17.983   4.127 -0.1589  0.1791  0.2964
 2834PAPS   D3A31688  21.258  18.203   4.474 -0.0556 -0.0176  0.1389
 2834PAPS   D4A31689  21.344  18.219   4.920 -0.0070  0.0888  0.0474
 2834PAPS   C5A31690  21.504  17.950   5.244  0.0252 -0.3130 -0.2208
 2834PAPS   C1B31691  21.078  18.635   4.058 -0.1595  0.2591  0.2711
 2834PAPS   C2B31692  21.234  18.708   4.532 -0.0068 -0.0731  0.1324
 2834PAPS   C3B31693  21.566  18.642   4.873  0.3583  0.2827  0.3195
 2834PAPS   C4B31694  21.763  18.373   5.271  0.2939 -0.0701 -0.2323
 2835PAPS   CNO31695  19.397   5.422   3.160  0.0338 -0.2034  0.2437
 2835PAPS   PO431696  19.248   5.201   3.382 -0.2784  0.0295  0.3762
 2835PAPS   GL131697  19.158   5.340   3.682  0.0511 -0.1930 -0.1888
 2835PAPS   GL231698  18.916   5.137   3.719 -0.0050  0.0446  0.1088
 2835PAPS   C1A31699  19.194   5.687   3.912  0.0187  0.1659 -0.0020
 2835PAPS   D2A31700  19.505   5.831   4.073 -0.0394 -0.0310  0.2660
 2835PAPS   D3A31701  19.803   5.959   4.370  0.2506  0.1024  0.2576
 2835PAPS   D4A31702  19.612   5.611   4.518 -0.0883 -0.3164  0.0186
 2835PAPS   C5A31703  19.234   5.596   4.816 -0.0546  0.0127 -0.1197
 2835PAPS   C1B31704  18.941   4.705   3.910  0.1636 -0.1712 -0.3624
 2835PAPS   C2B31705  18.833   4.727   4.367 -0.1920 -0.0985  0.0057
 2835PAPS   C3B31706  18.688   4.808   4.809  0.0062 -0.1646  0.2100
 2835PAPS   C4B31707  18.478   5.034   5.119  0.0175  0.1031  0.1041
 2836PAPS   CNO31708  22.811  25.505   2.993  0.0757 -0.2973  0.3846
 2836PAPS   PO431709  22.838  25.364   3.365  0.4051  0.2017 -0.0410
 2836PAPS   GL131710  23.139  25.328   3.575 -0.1014 -0.2121 -0.0973
 2836PAPS   GL231711  23.050  25.543   3.702  0.2233  0.5870 -0.1461
 2836PAPS   C1A31712  23.437  25.314   3.763 -0.5118 -0.0854  0.0598
 2836PAPS   D2A31713  23.819  25.421   3.720  0.2522  0.1616 -0.2199
 2836PAPS   D3A31714  24.029  25.186   4.045  0.1262 -0.0522  0.0722
 2836PAPS   D4A31715  24.093  25.243   4.491 -0.2320  0.2181 -0.3136
 2836PAPS   C5A31716  23.911  25.566   4.698 -0.0154 -0.0209  0.2326
 2836PAPS   C1B31717  23.028  25.482   4.137 -0.1373  0.0096 -0.4228
 2836PAPS   C2B31718  23.235  25.676   4.573 -0.0908  0.2754  0.0757
 2836PAPS   C3B31719  23.420  25.461   4.966  0.2751 -0.0334  0.2193
 2836PAPS   C4B31720  23.622  25.333   5.366 -0.0571 -0.0579 -0.1402
 2837PAPS   CNO31721   3.460  20.778   3.484 -0.2099  0.1248 -0.0000
 2837PAPS   PO431722   3.585  20.813   3.855  0.0409  0.1185  0.1998
 2837PAPS   GL131723   3.565  20.498   4.179 -0.8304  0.6385  0.1699
 2837PAPS   GL231724   3.696  20.660   4.189  0.4034 -0.1126  0.2053
 2837PAPS   C1A31725   3.700  20.318   4.475  0.0215 -0.1482  0.0125
 2837PAPS   D2A31726   3.771  20.350   4.877 -0.3196  0.3058 -0.1119
 2837PAPS   D3A31727   4.032  20.223   5.283  0.0415 -0.4466  0.1418
 2837PAPS   D4A31728   4.357  20.044   5.485 -0.1155 -0.2279  0.1192
 2837PAPS   C5A31729   4.701  20.385   5.596 -0.4209 -0.0386 -0.0015
 2837PAPS   C1B31730   3.879  20.706   4.572  0.0619 -0.3244  0.0885
 2837PAPS   C2B31731   4.114  20.701   5.036  0.0468  0.1623  0.0235
 2837PAPS   C3B31732   3.988  20.936   5.478  0.0444  0.0434 -0.3475
 2837PAPS   C4B31733   3.964  21.106   5.958  0.0719  0.0027  0.2310
 2838PAPS   CNO31734  11.621   7.599   3.546  0.0245 -0.1081  0.0410
 2838PAPS   PO431735  11.678   7.957   3.633 -0.1372 -0.0150  0.0019
 2838PAPS   GL131736  11.352   7.965   3.917  0.0843 -0.1919 -0.0900
 2838PAPS   GL231737  11.284   8.213   4.007 -0.2641 -0.3311 -0.0663
 2838PAPS   C1A31738  11.258   7.906   4.295  0.2944  0.1326  0.0314
 2838PAPS   D2A31739  10.973   7.945   4.592 -0.0307 -0.0212 -0.0207
 2838PAPS   D3A31740  10.973   7.696   4.905 -0.0932  0.0415 -0.1985
 2838PAPS   D4A31741  11.042   7.281   5.121  0.1649 -0.1269 -0.0775
 2838PAPS   C5A31742  10.663   7.047   5.376 -0.1313 -0.2011  0.2277
 2838PAPS   C1B31743  11.372   8.482   4.288 -0.0642 -0.1413  0.2586
 2838PAPS   C2B31744  11.214   8.411   4.764  0.0642  0.1692 -0.0886
 2838PAPS   C3B31745  11.062   8.604   5.127 -0.0693  0.2207 -0.0250
 2838PAPS   C4B31746  11.122   8.864   5.518  0.2533  0.0220  0.1638
 2839PAPS   CNO31747  26.752  18.014   3.579  0.1982  0.1629 -0.0025
 2839PAPS   PO431748  27.000  17.800   3.753 -0.2127 -0.1376  0.2839
 2839PAPS   GL131749  27.180  17.577   4.099  0.0519 -0.2061  0.2039
 2839PAPS   GL231750  27.266  17.802   4.215 -0.2408  0.3771 -0.0635
 2839PAPS   C1A31751  26.862  17.361   4.105 -0.0014  0.3069  0.1597
 2839PAPS   D2A31752  26.488  17.181   4.173  0.1150 -0.1293 -0.2611
 2839PAPS   D3A31753  26.204  17.666   4.183  0.2446 -0.0610  0.1880
 2839PAPS   D4A31754  26.177  17.426   4.621  0.1618 -0.1874 -0.3342
 2839PAPS   C5A31755  25.780  17.322   4.875  0.4510 -0.1567 -0.1469
 2839PAPS   C1B31756  27.073  17.643   4.501  0.0748 -0.0471 -0.0296
 2839PAPS   C2B31757  26.931  17.630   5.042  0.0864  0.0586  0.1481
 2839PAPS   C3B31758  26.862  17.615   5.485  0.0559  0.1485  0.0443
 2839PAPS   C4B31759  26.773  17.558   5.986 -0.2492 -0.0183 -0.2791
 2840PAPS   CNO31760   3.587  11.574   3.553 -0.2707  0.2339  0.0859
 2840PAPS   PO431761   3.852  11.331   3.676 -0.0550 -0.2394 -0.2672
 2840PAPS   GL131762   4.114  11.641   3.705 -0.3254  0.3070  0.2351
 2840PAPS   GL231763   4.052  11.658   4.027 -0.1969  0.2841  0.1010
 2840PAPS   C1A31764   4.452  11.605   3.775  0.0991  0.0946  0.3498
 2840PAPS   D2A31765   4.792  11.858   3.672  0.2071  0.0744  0.2342
 2840PAPS   D3A31766   5.228  11.742   3.846 -0.1408 -0.0770 -0.0790
 2840PAPS   D4A31767   5.637  11.583   4.150  0.1250  0.0370 -0.0549
 2840PAPS   C5A31768   5.596  11.544   4.706  0.1058 -0.1378 -0.0082
 2840PAPS   C1B31769   4.085  11.637   4.459  0.2268  0.4458  0.0168
 2840PAPS   C2B31770   4.346  11.678   4.900 -0.2216 -0.1922 -0.0454
 2840PAPS   C3B31771   4.541  12.046   5.120  0.0151  0.0501 -0.0856
 2840PAPS   C4B31772   4.590  11.992   5.565  0.0517  0.3405 -0.3125
 2841PAPS   CNO31773   2.991  17.795   3.331 -0.2086 -0.0998 -0.4097
 2841PAPS   PO431774   2.763  17.508   3.413 -0.0273  0.0259 -0.1186
 2841PAPS   GL131775   2.765  17.197   3.787  0.0900 -0.0798 -0.2175
 2841PAPS   GL231776   2.692  17.408   3.981 -0.1648 -0.1626 -0.2842
 2841PAPS   C1A31777   2.729  16.906   3.950 -0.0968 -0.2464  0.1532
 2841PAPS   D2A31778   2.399  16.862   4.185  0.0233 -0.1843 -0.2087
 2841PAPS   D3A31779   2.104  16.731   4.541  0.1550 -0.0195  0.0003
 2841PAPS   D4A31780   2.238  16.608   4.976 -0.0499 -0.1889  0.1089
 2841PAPS   C5A31781   2.671  16.688   5.176  0.1629  0.0354 -0.0491
 2841PAPS   C1B31782   2.392  17.405   4.325  0.1153  0.5158 -0.0268
 2841PAPS   C2B31783   2.119  17.203   4.706 -0.1473  0.2968  0.0067
 2841PAPS   C3B31784   2.083  17.158   5.225 -0.0508  0.3044  0.2696
 2841PAPS   C4B31785   1.728  16.888   5.380 -0.1532  0.1295 -0.1839
 2842PAPS   CNO31786  11.834  23.863   3.708  0.1498 -0.1621 -0.1173
 2842PAPS   PO431787  11.541  23.639   3.546 -0.1100  0.0717  0.4151
 2842PAPS   GL131788  11.357  23.621   3.989 -0.3175 -0.0037  0.0184
 2842PAPS   GL231789  11.549  23.831   4.037  0.2039  0.1481 -0.0799
 2842PAPS   C1A31790  11.064  23.611   4.289  0.0708 -0.2966 -0.2065
 2842PAPS   D2A31791  10.902  23.872   4.604  0.1245  0.2031  0.3062
 2842PAPS   D3A31792  11.041  23.914   5.026  0.0676  0.1259 -0.0230
 2842PAPS   D4A31793  11.125  23.764   5.456  0.1501 -0.0284  0.0921
 2842PAPS   C5A31794  11.084  23.291   5.538  0.2726 -0.2028  0.1361
 2842PAPS   C1B31795  11.787  24.002   4.322 -0.0059 -0.1105  0.1730
 2842PAPS   C2B31796  11.935  23.807   4.766  0.3283 -0.0673 -0.2090
 2842PAPS   C3B31797  12.149  23.547   5.027 -0.0964  0.1871  0.0222
 2842PAPS   C4B31798  12.018  23.072   5.159  0.4064 -0.0096 -0.0713
 2843PAPS   CNO31799  14.196  22.877   3.813  0.3021  0.1321  0.1752
 2843PAPS   PO431800  13.808  22.823   3.699 -0.2202 -0.0300 -0.2549
 2843PAPS   GL131801  13.615  22.818   4.005  0.1743  0.3049 -0.1193
 2843PAPS   GL231802  13.591  22.581   4.122 -0.1033 -0.1166 -0.3392
 2843PAPS   C1A31803  13.364  22.996   4.236 -0.0099  0.1654 -0.0585
 2843PAPS   D2A31804  13.126  22.796   4.525  0.1964 -0.2210 -0.2109
 2843PAPS   D3A31805  13.119  22.449   4.769 -0.0159  0.0334 -0.2165
 2843PAPS   D4A31806  13.531  22.498   4.923  0.1008 -0.3214  0.0377
 2843PAPS   C5A31807  13.344  22.531   5.325  0.0309  0.0859 -0.0917
 2843PAPS   C1B31808  13.567  22.317   4.484  0.1013 -0.0488 -0.0233
 2843PAPS   C2B31809  13.714  22.066   4.873 -0.3654 -0.1262  0.0548
 2843PAPS   C3B31810  13.683  21.725   5.176  0.3965  0.2990  0.1999
 2843PAPS   C4B31811  13.768  21.489   5.566  0.1747 -0.1746  0.0135
 2844PAPS   CNO31812  27.183   2.589   3.662 -0.0973 -0.0621  0.2893
 2844PAPS   PO431813  26.847   2.454   3.790 -0.2324 -0.0265  0.2788
 2844PAPS   GL131814  26.912   2.427   4.254 -0.0411  0.1347  0.2650
 2844PAPS   GL231815  27.104   2.280   4.079 -0.0297 -0.2671 -0.0265
 2844PAPS   C1A31816  26.795   2.380   4.590 -0.6696 -0.1858  0.5181
 2844PAPS   D2A31817  26.956   2.288   4.959  0.0402  0.0508  0.0953
 2844PAPS   D3A31818  27.105   1.887   5.044  0.3152  0.1272  0.0701
 2844PAPS   D4A31819  27.244   1.564   4.805 -0.1727 -0.1409 -0.1900
 2844PAPS   C5A31820  27.609   1.711   5.093  0.1525  0.3116 -0.2062
 2844PAPS   C1B31821  27.513   2.252   4.278 -0.2302 -0.0470  0.1239
 2844PAPS   C2B31822  27.681   1.855   4.589  0.2324 -0.0529 -0.0813
 2844PAPS   C3B31823  27.969   1.527   4.707  0.3337  0.1104  0.0589
 2844PAPS   C4B31824  28.293   1.250   4.902 -0.1159  0.3402 -0.0172
 2845PAPS   CNO31825  10.600  22.507   3.228 -0.0826 -0.1032  0.2731
 2845PAPS   PO431826  10.704  22.159   3.316 -0.1657 -0.0099  0.3355
 2845PAPS   GL131827  10.800  22.186   3.756 -0.0639 -0.1905 -0.0858
 2845PAPS   GL231828  10.842  22.387   3.683 -0.1846  0.2017  0.3204
 2845PAPS   C1A31829  10.873  22.108   4.134 -0.2356  0.1051  0.0441
 2845PAPS   D2A31830  11.143  22.218   4.387 -0.2527 -0.0898  0.0009
 2845PAPS   D3A31831  11.126  22.188   4.762  0.1211 -0.1815 -0.1253
 2845PAPS   D4A31832  11.352  22.328   5.055  0.2670 -0.0526  0.2122
 2845PAPS   C5A31833  11.130  22.308   5.463 -0.2707 -0.0554 -0.0827
 2845PAPS   C1B31834  10.907  22.804   3.861 -0.1339 -0.3735  0.0525
 2845PAPS   C2B31835  11.187  23.042   4.103  0.0242  0.0766  0.1954
 2845PAPS   C3B31836  11.209  23.258   4.533  0.0165  0.1850  0.1691
 2845PAPS   C4B31837  11.153  23.436   4.972 -0.0583  0.1571  0.1614
 2846PAPS   CNO31838   0.804  26.885   3.501  0.4785 -0.1420  0.1793
 2846PAPS   PO431839   1.024  26.722   3.800  0.0748  0.3829 -0.0800
 2846PAPS   GL131840   1.018  26.663   4.173 -0.0592  0.3042 -0.3129
 2846PAPS   GL231841   0.781  26.762   4.176  0.3534 -0.0692  0.0741
 2846PAPS   C1A31842   1.031  26.403   4.453 -0.1460 -0.0056  0.2144
 2846PAPS   D2A31843   1.005  26.223   4.762 -0.0863 -0.0818 -0.2870
 2846PAPS   D3A31844   1.055  26.475   5.068  0.3887 -0.0681 -0.2603
 2846PAPS   D4A31845   1.122  26.512   5.522 -0.3212 -0.2119 -0.2163
 2846PAPS   C5A31846   1.210  27.005   5.655 -0.1016 -0.1063 -0.2073
 2846PAPS   C1B31847   0.748  27.204   4.325  0.0906 -0.0429 -0.1010
 2846PAPS   C2B31848   0.773  27.637   4.606  0.1269 -0.0289 -0.0106
 2846PAPS   C3B31849   0.986  27.677   5.094 -0.0508 -0.0482  0.0456
 2846PAPS   C4B31850   1.042  27.638   5.555 -0.1173  0.0453 -0.1891
 2847PAPS   CNO31851  12.916   3.598   3.772 -0.0555 -0.2575  0.1864
 2847PAPS   PO431852  12.822   3.960   3.711  0.2782 -0.0304  0.0610
 2847PAPS   GL131853  12.874   3.954   4.112  0.0518  0.1590 -0.1075
 2847PAPS   GL231854  12.658   3.740   4.144  0.2184 -0.1400 -0.5171
 2847PAPS   C1A31855  12.810   4.048   4.453  0.1473 -0.0194  0.0924
 2847PAPS   D2A31856  12.807   4.203   4.776 -0.1643 -0.0376 -0.0609
 2847PAPS   D3A31857  13.181   4.290   4.662  0.0718 -0.0981  0.1474
 2847PAPS   D4A31858  13.090   4.424   4.246 -0.0412  0.0644  0.0490
 2847PAPS   C5A31859  13.557   4.565   4.458  0.1929  0.2319  0.2772
 2847PAPS   C1B31860  12.703   3.524   4.514  0.3959  0.0401  0.3679
 2847PAPS   C2B31861  12.541   3.387   4.990 -0.1321 -0.1655 -0.4976
 2847PAPS   C3B31862  12.700   3.052   5.352  0.0399 -0.1261 -0.0150
 2847PAPS   C4B31863  12.628   2.848   5.765  0.0941 -0.1023  0.0078
 2848PAPS   CNO31864  17.226  24.035   3.058 -0.0397  0.1194  0.1827
 2848PAPS   PO431865  17.508  24.021   3.340 -0.0262  0.0851  0.0527
 2848PAPS   GL131866  17.590  24.278   3.569 -0.2823  0.1600 -0.2792
 2848PAPS   GL231867  17.371  24.215   3.733  0.2803 -0.1086 -0.4502
 2848PAPS   C1A31868  17.761  24.584   3.573  0.0096  0.5799 -0.1976
 2848PAPS   D2A31869  17.966  24.673   3.906  0.0117  0.0749 -0.2659
 2848PAPS   D3A31870  18.125  24.582   4.327 -0.2591 -0.3492  0.2033
 2848PAPS   D4A31871  18.548  24.770   4.506  0.0931  0.1264 -0.3480
 2848PAPS   C5A31872  18.812  24.686   4.166 -0.2960  0.1999 -0.4900
 2848PAPS   C1B31873  17.456  24.545   4.073  0.2929  0.1283 -0.0467
 2848PAPS   C2B31874  17.391  24.648   4.564 -0.3213  0.1923  0.2706
 2848PAPS   C3B31875  17.180  24.642   5.036 -0.1829 -0.1358 -0.1529
 2848PAPS   C4B31876  17.169  24.436   5.473 -0.1090  0.1003 -0.0759
 2849PAPS   CNO31877   2.048  15.329   3.395 -0.2102  0.1450  0.0488
 2849PAPS   PO431878   1.801  15.031   3.417  0.1681  0.0504 -0.1747
 2849PAPS   GL131879   1.683  14.860   3.828  0.1362 -0.0002 -0.2811
 2849PAPS   GL231880   1.885  15.032   4.009 -0.0713  0.0870 -0.3208
 2849PAPS   C1A31881   1.735  14.481   3.883 -0.2685 -0.1811  0.0241
 2849PAPS   D2A31882   1.888  14.073   3.890 -0.2533 -0.2038 -0.1480
 2849PAPS   D3A31883   1.931  13.601   4.158 -0.2412 -0.0696  0.2670
 2849PAPS   D4A31884   1.671  13.394   4.400 -0.0733  0.0483  0.0957
 2849PAPS   C5A31885   1.635  13.316   4.872 -0.2440  0.5153  0.0890
 2849PAPS   C1B31886   1.843  15.129   4.489  0.0446 -0.1346  0.3835
 2849PAPS   C2B31887   2.080  15.279   4.960  0.0598  0.1844  0.2608
 2849PAPS   C3B31888   2.244  15.232   5.371 -0.2233  0.0184 -0.1680
 2849PAPS   C4B31889   2.400  15.336   5.865 -0.0777  0.1363  0.0843
 2850PAPS   CNO31890  27.427   1.843   3.380  0.1469  0.0706  0.3337
 2850PAPS   PO431891  27.705   2.077   3.341 -0.1003  0.3015 -0.1077
 2850PAPS   GL131892  27.825   2.176   3.780  0.0412 -0.0487 -0.1337
 2850PAPS   GL231893  27.500   2.199   3.695  0.0115 -0.1345 -0.1100
 2850PAPS   C1A31894  27.867   1.967   4.102 -0.1567 -0.0096 -0.0849
 2850PAPS   D2A31895  28.042   1.658   4.213  0.0256 -0.1284 -0.0911
 2850PAPS   D3A31896  28.341   1.747   4.518 -0.1516 -0.0939  0.1770
 2850PAPS   D4A31897  28.460   1.768   4.971  0.1951  0.2667 -0.0081
 2850PAPS   C5A31898  28.890   1.715   5.274 -0.4209 -0.1420 -0.1113
 2850PAPS   C1B31899  27.451   1.930   4.017 -0.4357  0.3166  0.0691
 2850PAPS   C2B31900  27.463   1.482   4.286  0.2202 -0.1172 -0.1601
 2850PAPS   C3B31901  27.530   1.161   4.603 -0.2802  0.1287  0.1143
 2850PAPS   C4B31902  27.577   1.208   5.085  0.0433 -0.4235  0.2376
 2851PAPS   CNO31903  24.756  12.222   3.704 -0.3285  0.1921 -0.0386
 2851PAPS   PO431904  24.873  12.523   3.921  0.0203 -0.2121  0.1194
 2851PAPS   GL131905  24.609  12.882   3.904 -0.2372 -0.3172  0.0482
 2851PAPS   GL231906  24.809  12.982   4.155 -0.3225  0.0372 -0.0603
 2851PAPS   C1A31907  24.277  12.959   4.136 -0.0989  0.2087 -0.0164
 2851PAPS   D2A31908  24.057  13.185   4.322 -0.2692 -0.1793  0.1274
 2851PAPS   D3A31909  24.024  13.049   4.757  0.5083  0.0990  0.2395
 2851PAPS   D4A31910  24.107  12.831   5.203 -0.1512  0.1186  0.1609
 2851PAPS   C5A31911  24.126  12.609   5.593 -0.1425 -0.0508 -0.0419
 2851PAPS   C1B31912  24.576  13.059   4.475  0.2745 -0.0530  0.2064
 2851PAPS   C2B31913  24.494  12.849   4.939 -0.0221  0.1957  0.1243
 2851PAPS   C3B31914  24.651  12.938   5.320 -0.1695  0.1769 -0.1279
 2851PAPS   C4B31915  24.742  13.374   5.570  0.0978 -0.1742  0.0060
 2852PAPS   CNO31916  10.778   5.051   3.071  0.2297  0.0780 -0.0272
 2852PAPS   PO431917  10.873   4.667   2.982  0.0362  0.0780 -0.0595
 2852PAPS   GL131918  10.935   4.517   3.457 -0.2720  0.0824 -0.1160
 2852PAPS   GL231919  10.880   4.759   3.483  0.2429  0.1306  0.1215
 2852PAPS   C1A31920  10.821   4.347   3.768 -0.0812  0.1879 -0.0333
 2852PAPS   D2A31921  10.901   4.337   4.160 -0.0359 -0.1645  0.1117
 2852PAPS   D3A31922  10.853   3.860   4.064  0.1005  0.2733  0.0155
 2852PAPS   D4A31923  11.051   3.696   3.727  0.1626  0.0189  0.3512
 2852PAPS   C5A31924  10.707   3.913   3.611 -0.3294  0.1345  0.2003
 2852PAPS   C1B31925  10.969   4.921   3.933 -0.3902 -0.1089  0.0448
 2852PAPS   C2B31926  10.732   4.895   4.420  0.0574  0.0969  0.3402
 2852PAPS   C3B31927  10.926   4.997   4.822  0.1195  0.3346  0.3515
 2852PAPS   C4B31928  11.077   5.417   5.068  0.5407 -0.0678 -0.1136
 2853PAPS   CNO31929  12.760  19.302   3.091 -0.2115 -0.0097 -0.2261
 2853PAPS   PO431930  12.963  18.982   3.214 -0.0859 -0.1593 -0.0637
 2853PAPS   GL131931  13.017  19.062   3.595 -0.2031 -0.1918  0.0232
 2853PAPS   GL231932  12.985  18.752   3.665  0.2672 -0.1552 -0.0547
 2853PAPS   C1A31933  12.964  19.383   3.741 -0.5101  0.3644 -0.2866
 2853PAPS   D2A31934  13.030  19.718   3.959  0.1495  0.0238  0.2119
 2853PAPS   D3A31935  12.868  20.012   4.279  0.1365 -0.0854  0.1325
 2853PAPS   D4A31936  12.872  19.571   4.429  0.3528  0.3148  0.2327
 2853PAPS   C5A31937  13.101  19.194   4.172 -0.1647 -0.4293  0.0569
 2853PAPS   C1B31938  13.010  18.741   4.125  0.0271  0.2254  0.0673
 2853PAPS   C2B31939  12.983  18.882   4.610  0.0950 -0.0434 -0.1889
 2853PAPS   C3B31940  13.300  19.028   4.940  0.2292  0.0727  0.0728
 2853PAPS   C4B31941  13.676  18.993   5.152 -0.0650 -0.1648 -0.1056
 2854PAPS   CNO31942   5.569  11.732   2.932  0.0817 -0.0009 -0.0112
 2854PAPS   PO431943   5.644  12.043   3.145  0.1601 -0.0982  0.0877
 2854PAPS   GL131944   5.867  12.129   3.469  0.0270  0.2626 -0.2419
 2854PAPS   GL231945   5.659  12.033   3.679 -0.2645 -0.0612  0.1637
 2854PAPS   C1A31946   6.157  12.111   3.695  0.4752 -0.1205 -0.1543
 2854PAPS   D2A31947   6.496  12.260   3.841 -0.0850  0.2711  0.0902
 2854PAPS   D3A31948   6.976  12.369   3.810 -0.0128 -0.0317 -0.0697
 2854PAPS   D4A31949   7.158  12.784   3.791 -0.0171 -0.2711  0.1004
 2854PAPS   C5A31950   7.470  12.519   3.568  0.1949 -0.1622 -0.2295
 2854PAPS   C1B31951   5.766  12.011   4.064 -0.0176  0.0559 -0.1013
 2854PAPS   C2B31952   5.745  12.136   4.584 -0.5452  0.0838  0.2533
 2854PAPS   C3B31953   5.778  12.215   5.045 -0.1710 -0.0706  0.0291
 2854PAPS   C4B31954   5.866  12.536   5.329 -0.0628  0.1129 -0.2365
 2855PAPS   CNO31955  22.702  10.694   3.230  0.0515  0.4003  0.0935
 2855PAPS   PO431956  22.853  10.528   3.539 -0.1307 -0.0139 -0.1948
 2855PAPS   GL131957  22.586  10.363   3.904 -0.1050 -0.2487  0.0747
 2855PAPS   GL231958  22.696  10.590   4.035  0.0744 -0.0531 -0.1536
 2855PAPS   C1A31959  22.406  10.191   4.130 -0.0976 -0.4560  0.0388
 2855PAPS   D2A31960  22.448  10.027   4.509 -0.1406  0.0278  0.0146
 2855PAPS   D3A31961  22.347  10.166   4.919  0.0171  0.3161 -0.0391
 2855PAPS   D4A31962  21.947  10.238   5.182 -0.0446 -0.1081 -0.2564
 2855PAPS   C5A31963  21.530  10.560   5.259  0.1149  0.1742  0.0845
 2855PAPS   C1B31964  22.692  10.639   4.489 -0.1651 -0.2267  0.5202
 2855PAPS   C2B31965  22.747  10.875   4.969  0.2476  0.3064  0.1132
 2855PAPS   C3B31966  22.679  10.894   5.451 -0.1079 -0.0189  0.0462
 2855PAPS   C4B31967  22.272  10.812   5.747  0.1223 -0.0595  0.0078
 2856PAPS   CNO31968  11.704  10.628   3.250  0.3803 -0.2555  0.1177
 2856PAPS   PO431969  11.845  10.466   3.574  0.0018 -0.0068  0.1406
 2856PAPS   GL131970  11.638  10.833   3.908 -0.1757 -0.0427 -0.0464
 2856PAPS   GL231971  11.863  10.741   3.977  0.0118  0.2340 -0.0455
 2856PAPS   C1A31972  11.395  10.713   4.150 -0.1115 -0.1804 -0.0697
 2856PAPS   D2A31973  11.261  10.501   4.433 -0.0212  0.5013  0.0263
 2856PAPS   D3A31974  11.306  10.415   4.931  0.3742  0.2300  0.3043
 2856PAPS   D4A31975  11.583  10.531   5.314  0.0608 -0.2210 -0.1571
 2856PAPS   C5A31976  11.297  10.834   5.534 -0.1942 -0.3231 -0.2188
 2856PAPS   C1B31977  11.855  11.030   4.322  0.0825  0.2463  0.2059
 2856PAPS   C2B31978  11.711  11.481   4.617  0.2376 -0.0800  0.0242
 2856PAPS   C3B31979  11.791  11.689   5.013  0.2195  0.0923 -0.0109
 2856PAPS   C4B31980  11.808  12.043   5.385  0.1484  0.0439 -0.1514
 2857PAPS   CNO31981   8.270  18.783   3.288 -0.1518 -0.1043  0.1222
 2857PAPS   PO431982   8.496  18.983   3.477 -0.1497 -0.1854  0.2668
 2857PAPS   GL131983   8.270  19.107   3.806  0.0033  0.0055 -0.2277
 2857PAPS   GL231984   8.449  19.294   3.871  0.2137  0.0504  0.0489
 2857PAPS   C1A31985   8.410  18.877   4.065  0.0294  0.0921  0.1775
 2857PAPS   D2A31986   8.350  18.633   4.367  0.0675 -0.2992 -0.1558
 2857PAPS   D3A31987   8.427  18.492   4.771 -0.1643  0.1082  0.1997
 2857PAPS   D4A31988   8.799  18.747   4.834 -0.3140  0.0652 -0.3085
 2857PAPS   C5A31989   8.864  18.955   5.236  0.2127 -0.0767 -0.1228
 2857PAPS   C1B31990   8.498  19.400   4.297  0.1142 -0.1453  0.0617
 2857PAPS   C2B31991   8.512  19.485   4.778  0.2887 -0.4540  0.0125
 2857PAPS   C3B31992   8.558  19.374   5.302  0.1110 -0.0614  0.1313
 2857PAPS   C4B31993   8.388  19.619   5.708  0.0069  0.0150 -0.0625
 2858PAPS   CNO31994  13.681   1.212   3.687  0.0222  0.0845 -0.1587
 2858PAPS   PO431995  13.715   1.263   4.063  0.2221 -0.1263 -0.2909
 2858PAPS   GL131996  13.364   1.433   4.223  0.0942  0.0984 -0.2153
 2858PAPS   GL231997  13.146   1.299   4.205 -0.3308  0.0284  0.3457
 2858PAPS   C1A31998  13.247   1.734   4.356  0.1539  0.4243 -0.1099
 2858PAPS   D2A31999  13.038   2.026   4.399 -0.0768 -0.2336  0.2147
 2858PAPS   D3A32000  13.236   2.383   4.270 -0.2241 -0.1340 -0.0230
 2858PAPS   D4A32001  13.263   2.419   4.715  0.1696 -0.1534 -0.3393
 2858PAPS   C5A32002  13.120   2.437   5.111 -0.2223  0.1978 -0.0434
 2858PAPS   C1B32003  13.175   1.327   4.625  0.0062  0.0236 -0.0012
 2858PAPS   C2B32004  13.369   1.388   5.146  0.0159 -0.1497 -0.2576
 2858PAPS   C3B32005  13.699   1.192   5.475 -0.0203  0.0941 -0.1972
 2858PAPS   C4B32006  14.162   1.233   5.679 -0.1731  0.0699  0.0379
 2859PAPS   CNO32007  15.407  19.103   3.240 -0.1144 -0.1129 -0.0594
 2859PAPS   PO432008  15.362  19.470   3.280  0.1169 -0.2631  0.2960
 2859PAPS   GL132009  15.575  19.520   3.665 -0.0177  0.0635 -0.1774
 2859PAPS   GL232010  15.655  19.217   3.632  0.4296  0.2994 -0.1675
 2859PAPS   C1A32011  15.575  19.689   4.006 -0.0082  0.0907  0.1152
 2859PAPS   D2A32012  15.504  19.948   4.333 -0.1692  0.0238  0.0339
 2859PAPS   D3A32013  15.527  19.990   4.804  0.1452  0.1522  0.1754
 2859PAPS   D4A32014  15.407  20.213   5.095 -0.1151  0.0766 -0.0164
 2859PAPS   C5A32015  15.052  20.144   5.436  0.0527  0.0827 -0.1508
 2859PAPS   C1B32016  15.758  18.842   3.874  0.1433  0.0139  0.0312
 2859PAPS   C2B32017  15.645  18.761   4.391 -0.0007 -0.0414 -0.0868
 2859PAPS   C3B32018  15.776  18.683   4.829 -0.1232 -0.1051  0.1066
 2859PAPS   C4B32019  15.599  18.565   5.189  0.0295 -0.0327  0.1519
 2860PAPS   CNO32020  20.786  26.728   2.935 -0.3172  0.0704  0.1168
 2860PAPS   PO432021  20.920  26.529   3.235 -0.0753  0.0293  0.1143
 2860PAPS   GL132022  20.679  26.603   3.626 -0.1145 -0.0058  0.0289
 2860PAPS   GL232023  20.915  26.790   3.686  0.1322  0.2786 -0.3805
 2860PAPS   C1A32024  20.291  26.648   3.693 -0.1008  0.1267  0.0819
 2860PAPS   D2A32025  19.987  26.638   3.906 -0.0951  0.2016  0.3969
 2860PAPS   D3A32026  19.743  26.750   4.275  0.0281  0.1030  0.3358
 2860PAPS   D4A32027  19.722  26.374   4.424  0.0790 -0.0104 -0.1573
 2860PAPS   C5A32028  20.076  26.591   4.769  0.1102  0.1222  0.3484
 2860PAPS   C1B32029  21.105  26.747   4.122  0.0009 -0.0642  0.3360
 2860PAPS   C2B32030  21.196  26.990   4.513  0.1078  0.0246  0.3366
 2860PAPS   C3B32031  21.009  27.195   4.908 -0.1521  0.1102 -0.0572
 2860PAPS   C4B32032  20.822  27.398   5.328  0.0204 -0.0408  0.0711
 2861PAPS   CNO32033   9.492  15.959   2.920  0.0955 -0.2658  0.0156
 2861PAPS   PO432034   9.527  16.342   3.061 -0.2404 -0.3267  0.0168
 2861PAPS   GL132035   9.734  16.334   3.413 -0.2953  0.2333  0.3447
 2861PAPS   GL232036   9.694  16.027   3.516  0.3830 -0.3150  0.2046
 2861PAPS   C1A32037  10.009  16.356   3.656 -0.4056  0.2729 -0.3056
 2861PAPS   D2A32038  10.382  16.328   3.635 -0.2654  0.0090 -0.2103
 2861PAPS   D3A32039  10.564  16.279   4.042 -0.2085  0.0945 -0.2851
 2861PAPS   D4A32040  10.352  16.512   4.389  0.0076 -0.1437 -0.0986
 2861PAPS   C5A32041  10.118  16.577   4.812 -0.0196  0.0444 -0.0088
 2861PAPS   C1B32042   9.469  15.817   3.899  0.3290  0.0903 -0.2414
 2861PAPS   C2B32043   9.012  15.845   4.233 -0.1196 -0.3075  0.3006
 2861PAPS   C3B32044   8.866  15.760   4.713 -0.0958  0.0506  0.0540
 2861PAPS   C4B32045   8.619  16.095   4.983  0.0020  0.0751  0.0309
 2862PAPS   CNO32046  14.031  12.638   3.126  0.0074 -0.2382  0.1081
 2862PAPS   PO432047  13.784  12.569   3.403 -0.0782  0.1842 -0.2645
 2862PAPS   GL132048  13.952  12.414   3.709 -0.2914  0.1583 -0.0977
 2862PAPS   GL232049  14.273  12.403   3.771  0.2950 -0.2732  0.0051
 2862PAPS   C1A32050  13.902  12.431   4.077  0.0354  0.1238 -0.2908
 2862PAPS   D2A32051  14.144  12.722   4.217  0.0899  0.0764 -0.1704
 2862PAPS   D3A32052  14.358  12.801   4.597 -0.2599  0.2342 -0.1817
 2862PAPS   D4A32053  14.756  12.874   4.899 -0.1982 -0.2696  0.0400
 2862PAPS   C5A32054  15.163  12.965   5.142  0.0359  0.3558  0.1239
 2862PAPS   C1B32055  14.328  12.070   4.011 -0.1936  0.3044  0.0505
 2862PAPS   C2B32056  14.583  11.816   4.416 -0.1162 -0.0977  0.0518
 2862PAPS   C3B32057  14.584  11.739   4.916  0.0114 -0.0767 -0.2656
 2862PAPS   C4B32058  14.889  11.698   5.322 -0.1539 -0.2906  0.1360
 2863PAPS   CNO32059  10.503  11.543   2.963  0.0251 -0.1207  0.2011
 2863PAPS   PO432060  10.579  11.214   3.014 -0.2030  0.0726 -0.1755
 2863PAPS   GL132061  10.602  11.151   3.403  0.1640  0.2073 -0.1774
 2863PAPS   GL232062  10.465  10.945   3.418  0.0579  0.1545 -0.3924
 2863PAPS   C1A32063  10.505  11.263   3.733  0.1264  0.0591 -0.2414
 2863PAPS   D2A32064  10.600  11.602   3.975 -0.0677  0.0524  0.0425
 2863PAPS   D3A32065  10.536  11.750   4.377  0.3280 -0.0906  0.0293
 2863PAPS   D4A32066  10.338  11.859   4.837  0.0365 -0.1603 -0.2114
 2863PAPS   C5A32067  10.209  12.296   5.144 -0.0123 -0.1618 -0.0482
 2863PAPS   C1B32068  10.536  10.804   3.799  0.0928  0.2858 -0.0746
 2863PAPS   C2B32069  10.506  10.610   4.287 -0.1703  0.0709 -0.3389
 2863PAPS   C3B32070  10.313  10.437   4.678 -0.0784 -0.1228 -0.4306
 2863PAPS   C4B32071  10.369  10.436   5.171  0.1459  0.1179 -0.0589
 2864PAPS   CNO32072   0.940  21.078   3.603  0.0651 -0.1014 -0.0165
 2864PAPS   PO432073   1.269  21.151   3.758  0.0034  0.1678  0.1298
 2864PAPS   GL132074   1.252  20.965   4.210 -0.2530  0.0313  0.3941
 2864PAPS   GL232075   1.486  21.106   4.237 -0.0094 -0.1415  0.4234
 2864PAPS   C1A32076   1.121  21.027   4.556 -0.1755  0.3403  0.3391
 2864PAPS   D2A32077   0.954  21.127   4.906  0.0083  0.1839 -0.0792
 2864PAPS   D3A32078   0.908  21.602   4.898  0.3988  0.4924 -0.0136
 2864PAPS   D4A32079   0.775  21.992   5.094 -0.2056 -0.0733  0.1715
 2864PAPS   C5A32080   0.363  22.218   5.276 -0.1930 -0.0590  0.1031
 2864PAPS   C1B32081   1.464  21.248   4.604  0.1343 -0.3443  0.2134
 2864PAPS   C2B32082   1.375  21.429   5.111  0.1236 -0.1830 -0.0914
 2864PAPS   C3B32083   1.020  21.541   5.399 -0.0679  0.1479 -0.1540
 2864PAPS   C4B32084   0.699  21.833   5.690  0.3765  0.3756 -0.0456
 2865PAPS   CNO32085  15.202  25.435   3.687  0.1357  0.2204 -0.3818
 2865PAPS   PO432086  15.448  25.356   3.952  0.1380  0.0890  0.2483
 2865PAPS   GL132087  15.162  25.145   4.201 -0.0034  0.0478 -0.1295
 2865PAPS   GL232088  15.146  24.956   4.095 -0.0465  0.0541  0.3241
 2865PAPS   C1A32089  15.115  25.131   4.550 -0.1697 -0.0650 -0.1765
 2865PAPS   D2A32090  15.097  25.370   4.827 -0.0091  0.0310  0.3138
 2865PAPS   D3A32091  15.274  25.486   5.277 -0.1752 -0.2084  0.2021
 2865PAPS   D4A32092  15.188  25.506   5.681 -0.0344 -0.3034 -0.1280
 2865PAPS   C5A32093  15.222  25.988   5.533 -0.0930 -0.0761 -0.0119
 2865PAPS   C1B32094  15.108  24.606   4.319  0.0242 -0.1176  0.3630
 2865PAPS   C2B32095  14.797  24.395   4.640  0.0330 -0.2545  0.2563
 2865PAPS   C3B32096  14.449  24.064   4.847 -0.0311  0.0641  0.0145
 2865PAPS   C4B32097  14.248  23.729   5.095  0.1232 -0.1349  0.1694
 2866PAPS   CNO32098  25.546  26.545   2.887 -0.3346 -0.0261 -0.0790
 2866PAPS   PO432099  25.236  26.359   2.946 -0.0355  0.2443  0.3454
 2866PAPS   GL132100  25.316  26.520   3.318 -0.1912 -0.0029  0.3183
 2866PAPS   GL232101  25.055  26.580   3.447  0.1143 -0.0456  0.3772
 2866PAPS   C1A32102  25.581  26.372   3.607  0.1261  0.2086  0.1663
 2866PAPS   D2A32103  25.928  26.398   3.812  0.0903  0.0875  0.2361
 2866PAPS   D3A32104  26.247  26.359   4.157 -0.4783 -0.0013  0.0434
 2866PAPS   D4A32105  26.501  25.986   4.343 -0.0408  0.1796 -0.0917
 2866PAPS   C5A32106  26.799  26.097   4.730 -0.3220  0.1198 -0.1546
 2866PAPS   C1B32107  25.111  26.738   3.868 -0.1528 -0.2142  0.1005
 2866PAPS   C2B32108  25.311  26.723   4.289  0.1894 -0.3008 -0.3495
 2866PAPS   C3B32109  25.494  26.830   4.722 -0.0439  0.3936 -0.1155
 2866PAPS   C4B32110  25.279  26.935   5.185  0.2256  0.1331 -0.0824
 2867PAPS   CNO32111  17.960   5.569   3.438  0.0722  0.1322  0.0986
 2867PAPS   PO432112  18.350   5.574   3.481  0.0779 -0.0821 -0.0878
 2867PAPS   GL132113  18.497   5.796   3.803  0.0786 -0.1076  0.7157
 2867PAPS   GL232114  18.749   5.663   3.621  0.1441  0.1684  0.2027
 2867PAPS   C1A32115  18.445   5.987   4.035 -0.2161 -0.1665 -0.0426
 2867PAPS   D2A32116  18.413   6.019   4.447 -0.0199 -0.4022  0.0785
 2867PAPS   D3A32117  18.723   5.870   4.744 -0.3057 -0.2118 -0.1520
 2867PAPS   D4A32118  18.666   6.002   5.154  0.0560 -0.0042 -0.2120
 2867PAPS   C5A32119  18.748   6.356   5.362  0.2069  0.0356 -0.0353
 2867PAPS   C1B32120  18.810   5.538   4.061 -0.0882 -0.0916 -0.0461
 2867PAPS   C2B32121  18.440   5.540   4.467 -0.1124 -0.1044 -0.0067
 2867PAPS   C3B32122  18.334   5.506   4.943  0.4393  0.0657  0.1634
 2867PAPS   C4B32123  17.949   5.382   5.192  0.4010  0.0158  0.3932
 2868PAPS   CNO32124  14.136  20.931   3.286 -0.1514  0.3878 -0.1310
 2868PAPS   PO432125  14.459  21.111   3.405  0.0793 -0.1347  0.0337
 2868PAPS   GL132126  14.447  21.265   3.812 -0.1972 -0.0645 -0.1868
 2868PAPS   GL232127  14.124  21.092   3.790 -0.1384 -0.0645  0.0765
 2868PAPS   C1A32128  14.352  21.463   4.101  0.1496 -0.1623  0.0506
 2868PAPS   D2A32129  14.092  21.318   4.327 -0.1298 -0.0544 -0.1214
 2868PAPS   D3A32130  13.674  21.390   4.363  0.1134  0.2249 -0.0601
 2868PAPS   D4A32131  13.788  21.206   4.767  0.1594 -0.1857  0.3472
 2868PAPS   C5A32132  13.503  21.200   5.184  0.0342  0.3661 -0.0817
 2868PAPS   C1B32133  13.830  20.969   4.117  0.3114  0.1819 -0.1240
 2868PAPS   C2B32134  13.500  20.877   4.459 -0.1393 -0.2934  0.1375
 2868PAPS   C3B32135  13.320  20.691   4.893 -0.2643  0.1758 -0.0685
 2868PAPS   C4B32136  13.075  20.493   5.232  0.3869  0.0485  0.0839
 2869PAPS   CNO32137   6.925  19.219   2.905  0.0449  0.0700 -0.2352
 2869PAPS   PO432138   6.792  19.211   3.241  0.1206  0.1348 -0.1073
 2869PAPS   GL132139   6.984  19.105   3.566 -0.0768  0.2896 -0.0390
 2869PAPS   GL232140   6.884  18.798   3.495 -0.4960  0.1712  0.1108
 2869PAPS   C1A32141   6.890  19.203   3.988  0.2628 -0.1434 -0.1219
 2869PAPS   D2A32142   6.687  19.498   4.122 -0.5536  0.0807  0.0004
 2869PAPS   D3A32143   6.436  19.495   4.483 -0.0833 -0.0513 -0.0253
 2869PAPS   D4A32144   6.871  19.668   4.575  0.0425 -0.0286  0.0259
 2869PAPS   C5A32145   6.976  19.865   4.956 -0.1888 -0.0203  0.4309
 2869PAPS   C1B32146   6.946  18.471   3.807  0.1870  0.3122 -0.1258
 2869PAPS   C2B32147   7.051  18.263   4.200 -0.1326  0.0548 -0.4229
 2869PAPS   C3B32148   7.272  18.240   4.585  0.2534 -0.0857  0.3641
 2869PAPS   C4B32149   7.473  17.990   4.814  0.1076  0.0317  0.2302
 2870PAPS   CNO32150   8.645  26.169   3.242  0.1265  0.2545  0.2744
 2870PAPS   PO432151   8.796  26.294   3.546 -0.1019  0.0309 -0.0003
 2870PAPS   GL132152   8.838  26.180   3.839 -0.1802 -0.1258  0.1582
 2870PAPS   GL232153   8.735  25.972   3.927 -0.2513  0.2099  0.1643
 2870PAPS   C1A32154   8.988  26.358   4.128  0.1147 -0.2110  0.4017
 2870PAPS   D2A32155   9.248  26.598   4.300 -0.0310  0.0852 -0.1923
 2870PAPS   D3A32156   9.561  26.413   4.596  0.0700 -0.0873  0.3347
 2870PAPS   D4A32157   9.991  26.520   4.309  0.1070  0.0522  0.2350
 2870PAPS   C5A32158  10.409  26.205   4.411  0.1289  0.2415  0.2512
 2870PAPS   C1B32159   8.998  25.790   4.267  0.1969  0.1705  0.1898
 2870PAPS   C2B32160   9.335  25.956   4.613 -0.1949 -0.3401  0.2797
 2870PAPS   C3B32161   9.704  25.864   4.977  0.0935  0.1151 -0.1837
 2870PAPS   C4B32162   9.752  25.601   5.454 -0.0047  0.1749  0.2593
 2871PAPS   CNO32163  17.361  23.105   3.342 -0.0899  0.1208  0.1713
 2871PAPS   PO432164  17.699  23.212   3.498 -0.1179  0.2337  0.0429
 2871PAPS   GL132165  17.892  23.205   3.904  0.0061  0.2495 -0.1748
 2871PAPS   GL232166  18.155  23.168   3.834 -0.2045  0.0330 -0.8013
 2871PAPS   C1A32167  17.606  23.139   4.145  0.1926  0.1837  0.1843
 2871PAPS   D2A32168  17.262  23.181   4.296 -0.1007  0.0512 -0.0505
 2871PAPS   D3A32169  17.348  22.939   4.693 -0.0446  0.3782 -0.0857
 2871PAPS   D4A32170  17.582  22.567   4.856  0.0952 -0.0740  0.1286
 2871PAPS   C5A32171  17.508  22.509   5.341  0.0326 -0.1483  0.0800
 2871PAPS   C1B32172  18.204  23.375   4.298  0.4902 -0.2232  0.1871
 2871PAPS   C2B32173  18.001  23.414   4.781 -0.1922 -0.0938  0.3238
 2871PAPS   C3B32174  17.983  23.437   5.272 -0.2018  0.5528  0.1525
 2871PAPS   C4B32175  17.979  23.457   5.750 -0.0257 -0.1774 -0.0578
 2872PAPS   CNO32176   5.520   7.758   2.992  0.1598  0.2393 -0.1357
 2872PAPS   PO432177   5.725   7.411   3.020  0.0399  0.0406 -0.0022
 2872PAPS   GL132178   5.819   7.337   3.416  0.2357  0.1797 -0.1109
 2872PAPS   GL232179   5.712   7.469   3.545  0.4194 -0.6782 -0.3422
 2872PAPS   C1A32180   5.947   7.109   3.589 -0.0527 -0.2029 -0.0502
 2872PAPS   D2A32181   5.871   6.934   3.968  0.1150 -0.3247 -0.1255
 2872PAPS   D3A32182   6.148   6.897   4.309 -0.3387  0.0226 -0.1637
 2872PAPS   D4A32183   6.124   7.096   4.619  0.0224 -0.3299 -0.3431
 2872PAPS   C5A32184   6.049   7.091   5.074  0.0557  0.0136  0.1460
 2872PAPS   C1B32185   5.583   7.237   3.978 -0.1546  0.0546 -0.0405
 2872PAPS   C2B32186   5.281   7.157   4.456  0.1989 -0.4232 -0.1589
 2872PAPS   C3B32187   5.058   7.200   4.854  0.0887 -0.0472  0.1752
 2872PAPS   C4B32188   4.736   7.280   5.147  0.0045  0.2414  0.0931
 2873PAPS   CNO32189   3.790  19.428   3.108  0.2567 -0.0089 -0.1295
 2873PAPS   PO432190   3.673  19.785   3.080 -0.2662 -0.2118 -0.4422
 2873PAPS   GL132191   3.541  19.975   3.485  0.1196 -0.0031  0.1096
 2873PAPS   GL232192   3.664  19.726   3.588 -0.2381 -0.2176 -0.1598
 2873PAPS   C1A32193   3.248  19.958   3.720  0.1193 -0.6824 -0.0612
 2873PAPS   D2A32194   2.950  19.957   4.033 -0.0124  0.0774  0.0536
 2873PAPS   D3A32195   3.133  20.227   4.308 -0.1918 -0.0917  0.0923
 2873PAPS   D4A32196   3.255  20.414   4.691  0.1703 -0.2527 -0.1043
 2873PAPS   C5A32197   3.292  20.143   5.125  0.0402 -0.1231  0.0360
 2873PAPS   C1B32198   3.379  19.631   3.952  0.0421 -0.4626 -0.1674
 2873PAPS   C2B32199   3.017  19.594   4.358  0.2198  0.1530 -0.1181
 2873PAPS   C3B32200   2.902  19.950   4.716 -0.0261  0.0194 -0.0831
 2873PAPS   C4B32201   2.650  19.971   5.173  0.3791 -0.0513 -0.1425
 2874PAPS   CNO32202  14.598  12.561   3.221 -0.1486  0.4434  0.4163
 2874PAPS   PO432203  14.615  12.669   3.588  0.2269  0.0207  0.0431
 2874PAPS   GL132204  14.495  13.025   3.709  0.2114  0.1721  0.1453
 2874PAPS   GL232205  14.273  13.077   3.895  0.1011 -0.2481  0.0268
 2874PAPS   C1A32206  14.801  13.179   3.874  0.1499  0.2471 -0.0139
 2874PAPS   D2A32207  15.113  13.196   4.049 -0.0796 -0.1595  0.0093
 2874PAPS   D3A32208  15.506  13.175   3.853 -0.1107  0.3133 -0.2544
 2874PAPS   D4A32209  15.901  13.451   3.779 -0.1153 -0.2624  0.1944
 2874PAPS   C5A32210  16.311  13.312   3.651  0.0745  0.0541 -0.0514
 2874PAPS   C1B32211  14.387  13.171   4.351  0.1129 -0.2657 -0.4303
 2874PAPS   C2B32212  14.448  13.324   4.805  0.1341 -0.3681 -0.0420
 2874PAPS   C3B32213  14.636  13.147   5.277  0.3882 -0.3965  0.0045
 2874PAPS   C4B32214  14.440  12.743   5.237  0.2132  0.0497 -0.1255
 2875PAPS   CNO32215  23.616   5.626   3.093  0.2584  0.1042  0.0245
 2875PAPS   PO432216  23.737   5.886   3.330  0.2664 -0.1112  0.0092
 2875PAPS   GL132217  23.572   5.957   3.687 -0.1515  0.2551  0.0074
 2875PAPS   GL232218  23.830   5.968   3.813  0.1397 -0.2742  0.0682
 2875PAPS   C1A32219  23.302   5.982   3.941 -0.2024  0.0043  0.0204
 2875PAPS   D2A32220  23.054   6.302   3.987 -0.0811  0.2646 -0.1890
 2875PAPS   D3A32221  23.275   6.313   4.398  0.2280  0.1993  0.0017
 2875PAPS   D4A32222  23.282   6.257   4.870 -0.0518 -0.1025  0.2440
 2875PAPS   C5A32223  23.496   6.024   5.188 -0.2961  0.3239 -0.2128
 2875PAPS   C1B32224  23.874   6.231   4.194 -0.0109 -0.1954 -0.3671
 2875PAPS   C2B32225  23.790   6.346   4.715  0.0733  0.0114 -0.3234
 2875PAPS   C3B32226  23.880   6.378   5.247  0.0227  0.0063 -0.3088
 2875PAPS   C4B32227  23.714   6.151   5.665 -0.1852  0.0530  0.2789
 2876PAPS   CNO32228  25.111  16.363   3.148  0.2497 -0.0310  0.3770
 2876PAPS   PO432229  25.233  16.641   3.400  0.0380 -0.0612 -0.2186
 2876PAPS   GL132230  25.281  16.690   3.840  0.0946  0.1892  0.1383
 2876PAPS   GL232231  25.339  16.901   3.833 -0.0002 -0.0278 -0.0346
 2876PAPS   C1A32232  25.463  16.510   4.129 -0.0500 -0.2929  0.2498
 2876PAPS   D2A32233  25.158  16.624   4.336 -0.1075 -0.3816 -0.0013
 2876PAPS   D3A32234  24.975  16.664   4.762 -0.0332 -0.1340 -0.1558
 2876PAPS   D4A32235  24.745  16.870   5.127 -0.1165 -0.0315 -0.3593
 2876PAPS   C5A32236  24.986  16.973   5.552  0.0264  0.0143 -0.0668
 2876PAPS   C1B32237  25.671  17.040   4.149  0.4232  0.1170  0.2032
 2876PAPS   C2B32238  25.551  16.969   4.652  0.0575  0.2728 -0.0907
 2876PAPS   C3B32239  25.467  17.013   5.146  0.2372  0.0233  0.1629
 2876PAPS   C4B32240  25.443  16.758   5.558  0.0083 -0.2582 -0.1828
 2877PAPS   CNO32241   2.170  16.250   3.328  0.3709 -0.2252 -0.1601
 2877PAPS   PO432242   2.457  16.282   3.097 -0.0008 -0.2580  0.2903
 2877PAPS   GL132243   2.678  16.106   3.427 -0.0707 -0.2390 -0.0837
 2877PAPS   GL232244   2.463  16.157   3.623 -0.0395 -0.4757 -0.4963
 2877PAPS   C1A32245   2.999  15.986   3.596 -0.0883  0.2283  0.1069
 2877PAPS   D2A32246   3.321  16.209   3.602  0.1536 -0.0884 -0.0498
 2877PAPS   D3A32247   3.363  15.838   3.898 -0.3139 -0.1295  0.1230
 2877PAPS   D4A32248   3.197  15.570   3.613  0.1198 -0.1125  0.1884
 2877PAPS   C5A32249   2.994  15.144   3.578 -0.1570 -0.0811 -0.1637
 2877PAPS   C1B32250   2.646  15.993   3.923  0.0218  0.0389  0.0571
 2877PAPS   C2B32251   2.824  15.812   4.344  0.1321 -0.2214 -0.0832
 2877PAPS   C3B32252   3.073  15.755   4.759  0.0136 -0.2000  0.0445
 2877PAPS   C4B32253   3.047  15.743   5.255 -0.1684 -0.0329  0.0001
 2878PAPS   CNO32254   8.924  21.292   3.246 -0.2610 -0.0224 -0.0948
 2878PAPS   PO432255   8.981  20.967   3.426 -0.2498 -0.1539 -0.2304
 2878PAPS   GL132256   9.001  21.098   3.934  0.1231 -0.1424  0.2223
 2878PAPS   GL232257   8.937  20.902   3.800  0.2829  0.1697 -0.2272
 2878PAPS   C1A32258   9.216  21.142   4.169 -0.0596 -0.0154  0.1246
 2878PAPS   D2A32259   9.297  21.068   4.545 -0.0187  0.2110 -0.1904
 2878PAPS   D3A32260   9.530  20.776   4.849  0.1808  0.0702  0.4287
 2878PAPS   D4A32261   9.550  20.454   5.123  0.2471 -0.0284  0.2617
 2878PAPS   C5A32262   9.607  20.150   5.454 -0.0397  0.1366 -0.1062
 2878PAPS   C1B32263   9.097  20.527   4.070 -0.1519  0.3893 -0.1687
 2878PAPS   C2B32264   8.951  20.567   4.531  0.0696  0.2294 -0.0320
 2878PAPS   C3B32265   9.062  20.639   5.010  0.1131  0.1327 -0.0856
 2878PAPS   C4B32266   9.284  20.828   5.380  0.1372  0.2404 -0.0185
 2879PAPS   CNO32267  25.309  25.494   2.835 -0.0013  0.1011 -0.2519
 2879PAPS   PO432268  25.406  25.510   3.194  0.3453 -0.0427 -0.0632
 2879PAPS   GL132269  25.233  25.787   3.378 -0.1204  0.3397  0.2724
 2879PAPS   GL232270  25.234  26.043   3.297  0.0194  0.4425  0.2585
 2879PAPS   C1A32271  25.156  25.676   3.772 -0.1541  0.0658  0.1461
 2879PAPS   D2A32272  25.165  25.800   4.131  0.0648 -0.1796  0.1630
 2879PAPS   D3A32273  25.228  25.507   4.476  0.0707  0.1885 -0.1612
 2879PAPS   D4A32274  25.537  25.793   4.749  0.1331 -0.1199  0.0713
 2879PAPS   C5A32275  25.699  26.021   5.170  0.0424 -0.2256 -0.0162
 2879PAPS   C1B32276  25.079  26.286   3.685 -0.2632 -0.2660 -0.5489
 2879PAPS   C2B32277  24.959  26.408   4.170  0.1834 -0.3146  0.1937
 2879PAPS   C3B32278  24.679  26.325   4.536 -0.4347 -0.1581  0.1557
 2879PAPS   C4B32279  24.808  26.115   4.971 -0.1265 -0.0521 -0.1161
 2880PAPS   CNO32280   6.346  11.273   2.793 -0.0055 -0.0730  0.2065
 2880PAPS   PO432281   6.212  11.298   3.180  0.0178  0.1130 -0.3159
 2880PAPS   GL132282   6.284  11.061   3.615  0.0049  0.1645 -0.0217
 2880PAPS   GL232283   5.988  11.324   3.597 -0.2744  0.1206 -0.0608
 2880PAPS   C1A32284   6.254  10.808   3.893 -0.0215 -0.4367 -0.0284
 2880PAPS   D2A32285   6.212  10.756   4.246 -0.1468 -0.2513 -0.2941
 2880PAPS   D3A32286   6.141  10.587   4.627  0.2121  0.1963 -0.1596
 2880PAPS   D4A32287   6.367  10.469   5.022  0.2762 -0.1329  0.0324
 2880PAPS   C5A32288   6.135  10.191   5.366 -0.0140  0.1547  0.0539
 2880PAPS   C1B32289   5.951  11.678   3.858 -0.1289  0.3002 -0.0473
 2880PAPS   C2B32290   6.108  11.606   4.315  0.0248  0.2583 -0.1247
 2880PAPS   C3B32291   6.227  11.767   4.736 -0.3481 -0.0487  0.1759
 2880PAPS   C4B32292   6.340  12.105   5.058 -0.0080  0.0605  0.1394
 2881PAPS   CNO32293   9.014  12.417   2.892  0.1083  0.3319 -0.0405
 2881PAPS   PO432294   8.798  12.125   3.057 -0.1528  0.0597  0.0621
 2881PAPS   GL132295   8.530  12.279   3.342 -0.2422  0.1163  0.0918
 2881PAPS   GL232296   8.478  11.976   3.347 -0.0297  0.0002 -0.0085
 2881PAPS   C1A32297   8.749  12.467   3.576  0.4409  0.2124 -0.1351
 2881PAPS   D2A32298   9.057  12.581   3.816  0.1103  0.1087  0.2623
 2881PAPS   D3A32299   9.091  12.675   4.311 -0.1131  0.0904  0.2405
 2881PAPS   D4A32300   9.043  12.642   4.737 -0.2485 -0.0412  0.0118
 2881PAPS   C5A32301   8.811  12.348   4.928  0.2037  0.0842 -0.0698
 2881PAPS   C1B32302   8.655  11.946   3.758  0.0361 -0.1693 -0.2174
 2881PAPS   C2B32303   8.388  11.759   4.148  0.0490 -0.2388  0.2120
 2881PAPS   C3B32304   8.462  11.526   4.579  0.2588  0.1148  0.0698
 2881PAPS   C4B32305   8.703  11.286   4.963  0.2467  0.1535  0.0257
 2882PAPS   CNO32306  21.400  21.663   3.861 -0.0752  0.0087  0.3178
 2882PAPS   PO432307  21.431  21.831   4.187  0.0059  0.1059  0.0134
 2882PAPS   GL132308  21.758  22.140   4.304 -0.1710 -0.1487  0.2445
 2882PAPS   GL232309  21.552  22.337   4.324  0.1474 -0.0886  0.3649
 2882PAPS   C1A32310  22.023  22.115   4.050 -0.1141  0.4394 -0.1969
 2882PAPS   D2A32311  22.399  22.178   4.051 -0.0772 -0.1197  0.3032
 2882PAPS   D3A32312  22.685  22.265   3.612 -0.0412 -0.0494  0.3867
 2882PAPS   D4A32313  22.926  22.066   3.953  0.0097 -0.0468  0.2061
 2882PAPS   C5A32314  22.802  22.227   4.399 -0.1389  0.0342  0.0785
 2882PAPS   C1B32315  21.536  22.516   4.747  0.0607 -0.3724  0.1297
 2882PAPS   C2B32316  21.449  22.846   5.114  0.2110  0.1082 -0.1165
 2882PAPS   C3B32317  21.574  23.331   5.150 -0.0275 -0.1368  0.2763
 2882PAPS   C4B32318  21.976  23.648   5.193 -0.2703  0.4069 -0.0222
 2883PAPS   CNO32319   7.939   1.841   2.659 -0.0670  0.1893  0.2491
 2883PAPS   PO432320   7.752   1.951   2.966 -0.3571  0.1937 -0.1193
 2883PAPS   GL132321   7.609   2.024   3.335  0.1276  0.1112 -0.2750
 2883PAPS   GL232322   7.796   2.322   3.249 -0.1390  0.1953  0.2785
 2883PAPS   C1A32323   7.632   2.068   3.730 -0.2656 -0.1062  0.1536
 2883PAPS   D2A32324   7.604   2.353   4.069 -0.2083 -0.1105 -0.1339
 2883PAPS   D3A32325   7.332   2.329   4.427  0.0269  0.0937 -0.0597
 2883PAPS   D4A32326   7.183   2.614   4.789 -0.2361  0.4334 -0.1808
 2883PAPS   C5A32327   7.046   2.702   5.232 -0.2065  0.4244  0.3034
 2883PAPS   C1B32328   8.141   2.243   3.595 -0.1578 -0.1300  0.0915
 2883PAPS   C2B32329   8.444   2.460   3.935 -0.1575  0.1555  0.0564
 2883PAPS   C3B32330   8.546   2.847   4.162  0.0069  0.0011  0.0828
 2883PAPS   C4B32331   8.655   3.236   4.256 -0.0477  0.2500  0.0611
 2884PAPS   CNO32332  23.038  11.003   3.454  0.3718 -0.1854 -0.0324
 2884PAPS   PO432333  22.705  11.143   3.500 -0.2579  0.0547 -0.0039
 2884PAPS   GL132334  22.688  11.018   3.918 -0.1402 -0.2160 -0.1144
 2884PAPS   GL232335  22.460  10.837   3.835  0.3899 -0.1061  0.0119
 2884PAPS   C1A32336  22.668  11.017   4.277 -0.1989 -0.1219  0.0698
 2884PAPS   D2A32337  22.433  11.118   4.572  0.1460 -0.0227  0.0455
 2884PAPS   D3A32338  21.989  11.103   4.742 -0.1057 -0.0795  0.1157
 2884PAPS   D4A32339  21.701  10.697   4.772  0.1109 -0.0159  0.0092
 2884PAPS   C5A32340  21.824  10.285   4.728  0.2229  0.1223 -0.1591
 2884PAPS   C1B32341  22.245  10.679   4.133 -0.0112  0.0532 -0.0389
 2884PAPS   C2B32342  22.235  10.634   4.645 -0.0400  0.0904 -0.2103
 2884PAPS   C3B32343  22.144  10.789   5.112 -0.0174 -0.0692  0.0215
 2884PAPS   C4B32344  21.843  10.837   5.502 -0.1193  0.1741 -0.3092
 2885PAPS   CNO32345  24.132  27.022   2.690  0.0928  0.0900 -0.0542
 2885PAPS   PO432346  24.288  26.707   2.794  0.0120 -0.1313  0.2059
 2885PAPS   GL132347  24.073  26.665   3.181  0.1787  0.1181  0.2046
 2885PAPS   GL232348  24.151  26.969   3.248  0.0870  0.5392 -0.1356
 2885PAPS   C1A32349  23.877  26.468   3.439 -0.2168  0.3952 -0.4814
 2885PAPS   D2A32350  23.608  26.309   3.630  0.1459  0.1585  0.1885
 2885PAPS   D3A32351  23.724  25.984   3.845  0.2247  0.1330 -0.2274
 2885PAPS   D4A32352  23.451  25.692   4.074  0.2008  0.1145  0.2699
 2885PAPS   C5A32353  23.599  25.334   4.319  0.0076 -0.0055 -0.2197
 2885PAPS   C1B32354  24.362  26.985   3.604  0.1703  0.0929 -0.0830
 2885PAPS   C2B32355  24.367  27.136   4.130 -0.0098 -0.3997  0.1207
 2885PAPS   C3B32356  24.383  27.231   4.593  0.2184 -0.1475 -0.1249
 2885PAPS   C4B32357  24.233  27.341   5.067 -0.0086  0.0901  0.1425
 2886PAPS   CNO32358   9.480  11.857   2.775  0.1627 -0.0818  0.4343
 2886PAPS   PO432359   9.337  12.065   3.063 -0.1970  0.0641  0.2895
 2886PAPS   GL132360   9.340  11.932   3.429 -0.0853  0.0697 -0.0607
 2886PAPS   GL232361   9.535  11.768   3.559  0.0510  0.0561 -0.3076
 2886PAPS   C1A32362   9.160  12.049   3.768 -0.3254  0.0704  0.3837
 2886PAPS   D2A32363   8.987  12.113   4.125 -0.3063  0.2734  0.0666
 2886PAPS   D3A32364   9.125  12.145   4.501 -0.0555  0.1752 -0.1295
 2886PAPS   D4A32365   9.214  12.080   4.953 -0.1793  0.5386 -0.2137
 2886PAPS   C5A32366   9.182  12.522   5.230  0.1314  0.3765 -0.0099
 2886PAPS   C1B32367   9.444  11.530   3.903  0.0802  0.0790  0.3477
 2886PAPS   C2B32368   9.209  11.220   4.270  0.1707 -0.0429  0.3172
 2886PAPS   C3B32369   9.194  11.127   4.702  0.2691 -0.2590 -0.0961
 2886PAPS   C4B32370   9.279  11.133   5.190  0.2174 -0.3149 -0.1351
 2887PAPS   CNO32371  12.675  24.163   3.484 -0.0550 -0.0378  0.2519
 2887PAPS   PO432372  12.816  23.813   3.612 -0.1328 -0.0478 -0.1781
 2887PAPS   GL132373  12.583  23.636   3.960  0.2431 -0.0100 -0.0227
 2887PAPS   GL232374  12.461  23.418   3.804  0.1732  0.5128 -0.4768
 2887PAPS   C1A32375  12.594  23.537   4.320 -0.0566 -0.0993  0.2735
 2887PAPS   D2A32376  12.563  23.596   4.723 -0.0547  0.0454  0.1534
 2887PAPS   D3A32377  12.768  23.718   5.110  0.1462 -0.0181 -0.0768
 2887PAPS   D4A32378  12.524  23.853   5.444  0.1105 -0.1002 -0.1132
 2887PAPS   C5A32379  12.244  24.033   5.764  0.0491  0.1817  0.0097
 2887PAPS   C1B32380  12.142  23.365   4.045  0.0651 -0.1024  0.0461
 2887PAPS   C2B32381  11.680  23.514   4.347 -0.0998  0.2692  0.1037
 2887PAPS   C3B32382  11.453  23.767   4.650 -0.1206  0.3903 -0.2380
 2887PAPS   C4B32383  11.562  23.733   5.159 -0.1714 -0.2742  0.3121
 2888PAPS   CNO32384   1.223   7.943   3.563  0.1736  0.2999 -0.0563
 2888PAPS   PO432385   1.470   8.186   3.711 -0.2083 -0.1761  0.2999
 2888PAPS   GL132386   1.448   8.211   4.115 -0.0800 -0.1996  0.0873
 2888PAPS   GL232387   1.735   8.143   4.134  0.2042  0.0408 -0.1227
 2888PAPS   C1A32388   1.372   8.422   4.336  0.0085  0.0612 -0.1899
 2888PAPS   D2A32389   1.045   8.466   4.511 -0.0371  0.0215  0.3128
 2888PAPS   D3A32390   1.045   8.397   4.945  0.3365  0.0542 -0.2297
 2888PAPS   D4A32391   1.213   8.510   5.325 -0.2880  0.0185 -0.1612
 2888PAPS   C5A32392   1.267   8.719   5.699  0.0286 -0.2294  0.3776
 2888PAPS   C1B32393   1.972   8.189   4.558 -0.0342 -0.1019 -0.2940
 2888PAPS   C2B32394   2.056   8.393   5.100  0.1540  0.3748 -0.0768
 2888PAPS   C3B32395   2.398   8.692   5.300  0.1324 -0.0732  0.0074
 2888PAPS   C4B32396   2.707   9.053   5.379 -0.1581 -0.1578  0.0802
 2889PAPS   CNO32397  12.559   1.833   3.343  0.0346  0.2472  0.1318
 2889PAPS   PO432398  12.657   1.905   3.689  0.0571 -0.0269 -0.5581
 2889PAPS   GL132399  12.549   1.754   4.054 -0.1317 -0.2272  0.3780
 2889PAPS   GL232400  12.422   1.566   4.024 -0.3586  0.1756  0.3715
 2889PAPS   C1A32401  12.504   2.040   4.282  0.3614  0.0390 -0.1425
 2889PAPS   D2A32402  12.292   2.204   4.608 -0.1183  0.1572 -0.0132
 2889PAPS   D3A32403  12.038   2.465   4.973 -0.2832  0.1740 -0.1878
 2889PAPS   D4A32404  12.130   2.668   5.369  0.1065 -0.1440 -0.1186
 2889PAPS   C5A32405  12.240   3.223   5.316  0.2724  0.1071  0.0641
 2889PAPS   C1B32406  12.129   1.499   4.317 -0.1243 -0.1367  0.1175
 2889PAPS   C2B32407  11.944   1.899   4.477  0.0298  0.0449 -0.0375
 2889PAPS   C3B32408  11.781   2.028   4.913 -0.2718  0.0664 -0.0886
 2889PAPS   C4B32409  11.839   2.228   5.328 -0.1264  0.2251 -0.0757
 2890PAPS   CNO32410   3.756  13.260   2.887 -0.2608 -0.3697 -0.2219
 2890PAPS   PO432411   3.692  13.313   3.258 -0.0021 -0.1020  0.3956
 2890PAPS   GL132412   3.870  13.328   3.676 -0.2935 -0.0786  0.1031
 2890PAPS   GL232413   4.119  13.290   3.596  0.2136  0.1528  0.0594
 2890PAPS   C1A32414   3.672  13.320   3.965 -0.3460  0.1708 -0.1336
 2890PAPS   D2A32415   3.359  13.435   4.178  0.0190 -0.2711 -0.0214
 2890PAPS   D3A32416   3.265  13.723   4.482 -0.2213 -0.2758 -0.0084
 2890PAPS   D4A32417   3.407  14.103   4.563  0.0041  0.0476 -0.2544
 2890PAPS   C5A32418   3.651  14.520   4.315 -0.0293 -0.2306 -0.2766
 2890PAPS   C1B32419   4.365  13.139   3.892 -0.0064 -0.2467  0.0178
 2890PAPS   C2B32420   4.445  13.078   4.334  0.0308  0.0102 -0.0484
 2890PAPS   C3B32421   4.593  13.166   4.805  0.1661  0.0691  0.2146
 2890PAPS   C4B32422   4.806  13.289   5.206 -0.2699  0.1890  0.4448
 2891PAPS   CNO32423  16.270   6.855   3.350 -0.0320 -0.0852  0.2148
 2891PAPS   PO432424  15.961   7.035   3.376 -0.0215 -0.3039 -0.2426
 2891PAPS   GL132425  15.844   6.909   3.725  0.0972  0.0287  0.0870
 2891PAPS   GL232426  16.148   7.004   3.803  0.0888  0.3058 -0.0672
 2891PAPS   C1A32427  15.531   6.995   3.875  0.0156  0.1030 -0.3739
 2891PAPS   D2A32428  15.171   6.970   4.093  0.1327  0.1060 -0.0293
 2891PAPS   D3A32429  14.757   6.709   4.041  0.2369 -0.0499 -0.2650
 2891PAPS   D4A32430  14.463   7.078   4.167 -0.1493  0.5089 -0.2455
 2891PAPS   C5A32431  14.117   7.177   3.892  0.3172  0.0051 -0.1028
 2891PAPS   C1B32432  16.438   6.900   4.141 -0.2537 -0.1800  0.2977
 2891PAPS   C2B32433  16.600   6.978   4.584 -0.2081 -0.1298  0.0740
 2891PAPS   C3B32434  16.515   7.399   4.687 -0.0440  0.3198  0.0972
 2891PAPS   C4B32435  16.820   7.727   4.495  0.0488  0.0929 -0.1579
 2892PAPS   CNO32436  16.533   9.373   3.009  0.0242 -0.0519  0.1240
 2892PAPS   PO432437  16.457   9.197   3.326 -0.1727 -0.1631 -0.1071
 2892PAPS   GL132438  16.210   9.445   3.556  0.1782  0.2131  0.1263
 2892PAPS   GL232439  16.053   9.152   3.572 -0.1220 -0.0647 -0.0639
 2892PAPS   C1A32440  16.215   9.607   3.915  0.0787  0.2736  0.2092
 2892PAPS   D2A32441  16.231   9.780   4.299 -0.1173 -0.1941  0.3787
 2892PAPS   D3A32442  15.805   9.816   4.538 -0.2233  0.2473 -0.0711
 2892PAPS   D4A32443  15.827   9.857   5.015  0.3351  0.0128 -0.3278
 2892PAPS   C5A32444  15.759   9.439   5.108  0.3523  0.0589 -0.1144
 2892PAPS   C1B32445  16.104   9.086   4.032  0.0816 -0.0337  0.0548
 2892PAPS   C2B32446  16.294   8.923   4.481  0.0297 -0.0963  0.2402
 2892PAPS   C3B32447  16.336   8.663   4.875  0.0287  0.2775  0.0520
 2892PAPS   C4B32448  16.409   8.325   5.271  0.2673  0.1008  0.0353
 2893PAPS   CNO32449  21.625  15.364   2.892 -0.0139 -0.1046 -0.0919
 2893PAPS   PO432450  21.510  15.416   3.271  0.0857  0.2120  0.0282
 2893PAPS   GL132451  21.803  15.346   3.602 -0.1775 -0.2769  0.1614
 2893PAPS   GL232452  21.949  15.631   3.609  0.0900  0.5174  0.0104
 2893PAPS   C1A32453  21.884  15.113   3.819  0.2885  0.0121 -0.0397
 2893PAPS   D2A32454  21.836  15.146   4.184 -0.2651  0.0278 -0.0543
 2893PAPS   D3A32455  21.736  15.140   4.526 -0.1210 -0.0519  0.0170
 2893PAPS   D4A32456  21.649  15.001   4.992  0.0874 -0.2020 -0.0856
 2893PAPS   C5A32457  21.322  14.678   5.021  0.1549  0.2034 -0.0883
 2893PAPS   C1B32458  21.949  15.662   4.081  0.5627  0.0023  0.5005
 2893PAPS   C2B32459  22.044  15.553   4.594  0.0829 -0.0512  0.0978
 2893PAPS   C3B32460  22.016  15.416   5.068 -0.0038 -0.2552 -0.0142
 2893PAPS   C4B32461  21.761  15.259   5.490  0.2916 -0.0988  0.1940
 2894PAPS   CNO32462  10.796  10.132   3.332 -0.3337  0.0414  0.0033
 2894PAPS   PO432463  10.901  10.393   3.562 -0.2106 -0.2450 -0.4605
 2894PAPS   GL132464  11.158  10.106   3.918  0.4681 -0.1530 -0.2332
 2894PAPS   GL232465  10.990  10.346   4.038  0.5061 -0.2015  0.0195
 2894PAPS   C1A32466  11.274  10.052   4.279  0.0059  0.0346  0.0797
 2894PAPS   D2A32467  11.124   9.991   4.622  0.1118  0.1657 -0.0316
 2894PAPS   D3A32468  11.014  10.034   5.057 -0.1353 -0.1074 -0.0888
 2894PAPS   D4A32469  10.681   9.863   5.307  0.3411  0.2187  0.0517
 2894PAPS   C5A32470  10.282   9.583   5.303 -0.2245  0.1084  0.0905
 2894PAPS   C1B32471  10.776  10.352   4.516  0.0203  0.1362 -0.0436
 2894PAPS   C2B32472  10.838  10.486   5.002 -0.0264 -0.0719 -0.0221
 2894PAPS   C3B32473  11.004  10.482   5.409  0.0205 -0.1742 -0.0258
 2894PAPS   C4B32474  10.960  10.485   5.915  0.1949 -0.1586 -0.0305
 2895PAPS   CNO32475   2.378  11.524   3.441  0.2385 -0.1108 -0.1365
 2895PAPS   PO432476   2.066  11.300   3.463 -0.2943 -0.1741 -0.5212
 2895PAPS   GL132477   2.076  11.330   3.897 -0.0083 -0.1234  0.3072
 2895PAPS   GL232478   1.844  11.326   3.935  0.1835  0.2652 -0.1102
 2895PAPS   C1A32479   2.326  11.459   4.178  0.0268 -0.0511 -0.0674
 2895PAPS   D2A32480   2.446  11.782   4.362 -0.0670 -0.2956  0.1831
 2895PAPS   D3A32481   2.079  12.047   4.444 -0.2250  0.4459  0.1854
 2895PAPS   D4A32482   1.784  12.033   4.784  0.0535  0.1392  0.0189
 2895PAPS   C5A32483   1.724  11.652   5.044 -0.2351  0.2506  0.0060
 2895PAPS   C1B32484   1.651  11.106   4.306 -0.0641 -0.4352  0.1090
 2895PAPS   C2B32485   1.630  11.009   4.808  0.2413  0.3970 -0.2912
 2895PAPS   C3B32486   1.510  11.066   5.262 -0.1628  0.0410 -0.3557
 2895PAPS   C4B32487   1.282  10.944   5.700  0.2426  0.1019  0.0602
 2896PAPS   CNO32488  21.996   4.582   3.088  0.1893 -0.0042  0.0072
 2896PAPS   PO432489  22.299   4.549   3.314  0.1259  0.0201 -0.1532
 2896PAPS   GL132490  22.352   4.584   3.668  0.7292  0.0260 -0.0261
 2896PAPS   GL232491  22.563   4.507   3.754  0.3096  0.1379  0.2948
 2896PAPS   C1A32492  22.145   4.490   3.953 -0.0784 -0.2908  0.1820
 2896PAPS   D2A32493  22.053   4.153   4.041  0.0654 -0.3200  0.0258
 2896PAPS   D3A32494  21.610   4.158   4.056 -0.0045 -0.2751 -0.1336
 2896PAPS   D4A32495  21.758   4.157   4.476  0.1384  0.2291 -0.2913
 2896PAPS   C5A32496  21.671   3.947   4.869  0.1671 -0.4366  0.0249
 2896PAPS   C1B32497  22.810   4.604   4.147 -0.3527  0.0780  0.2273
 2896PAPS   C2B32498  23.157   4.781   4.535 -0.4922  0.0309 -0.2029
 2896PAPS   C3B32499  22.910   4.783   4.886  0.1792 -0.0722  0.1607
 2896PAPS   C4B32500  22.970   4.596   5.349  0.0694 -0.1677  0.0457
 2897PAPS   CNO32501   4.150  26.432   3.696 -0.0907 -0.2280 -0.2233
 2897PAPS   PO432502   3.946  26.702   3.593 -0.0117  0.1942 -0.2042
 2897PAPS   GL132503   3.994  26.813   4.044  0.3082 -0.3250  0.0384
 2897PAPS   GL232504   4.197  26.725   4.088 -0.1375  0.1137  0.0417
 2897PAPS   C1A32505   3.789  26.739   4.300 -0.0632  0.0477  0.3688
 2897PAPS   D2A32506   3.514  26.608   4.556  0.1731 -0.0724  0.0790
 2897PAPS   D3A32507   3.429  26.732   4.937 -0.0001  0.2580 -0.3299
 2897PAPS   D4A32508   3.357  26.780   5.392 -0.0214 -0.3969  0.2002
 2897PAPS   C5A32509   3.130  26.392   5.656  0.0438 -0.0919  0.0153
 2897PAPS   C1B32510   4.340  26.979   4.465  0.1753 -0.1873  0.2484
 2897PAPS   C2B32511   4.515  27.157   4.933 -0.0078  0.2042  0.2486
 2897PAPS   C3B32512   4.281  27.412   5.194  0.0058  0.0744 -0.1925
 2897PAPS   C4B32513   4.085  27.623   5.575  0.1698 -0.2039 -0.2303
 2898PAPS   CNO32514  18.529  13.894   2.840 -0.0179 -0.2198  0.0835
 2898PAPS   PO432515  18.619  13.810   3.156  0.1108 -0.0660  0.2758
 2898PAPS   GL132516  18.586  14.014   3.563 -0.0430  0.0618 -0.1761
 2898PAPS   GL232517  18.367  13.759   3.632 -0.0356  0.1427  0.4110
 2898PAPS   C1A32518  18.869  14.099   3.918 -0.2925 -0.2522  0.6782
 2898PAPS   D2A32519  19.075  13.792   4.100  0.0745 -0.0734  0.1707
 2898PAPS   D3A32520  18.895  13.953   4.451  0.3551  0.1443 -0.0720
 2898PAPS   D4A32521  19.122  14.013   4.894 -0.0518 -0.0569  0.0802
 2898PAPS   C5A32522  19.409  13.842   5.238  0.2518  0.0452 -0.2410
 2898PAPS   C1B32523  18.581  13.544   3.922 -0.0861  0.0606 -0.1259
 2898PAPS   C2B32524  18.704  13.479   4.407 -0.0564 -0.0605  0.2242
 2898PAPS   C3B32525  18.687  13.524   4.868  0.0339  0.2404 -0.1533
 2898PAPS   C4B32526  18.228  13.542   5.137 -0.1681 -0.1099  0.1042
 2899PAPS   CNO32527  15.999  15.592   3.085 -0.1338 -0.1828 -0.0235
 2899PAPS   PO432528  16.273  15.665   3.354 -0.0161 -0.0796 -0.2931
 2899PAPS   GL132529  16.132  15.406   3.773  0.1685 -0.0971  0.0950
 2899PAPS   GL232530  16.294  15.306   3.606 -0.1302 -0.1517  0.0404
 2899PAPS   C1A32531  15.825  15.188   3.857  0.2641 -0.4228  0.4690
 2899PAPS   D2A32532  15.455  15.105   4.152 -0.0549 -0.1976  0.0962
 2899PAPS   D3A32533  15.698  14.941   4.414  0.1992 -0.3684  0.0545
 2899PAPS   D4A32534  16.118  14.904   4.534 -0.0595 -0.0476 -0.1683
 2899PAPS   C5A32535  16.164  14.473   4.725  0.2415  0.3450 -0.2414
 2899PAPS   C1B32536  16.188  14.952   3.967 -0.0543 -0.0532 -0.1485
 2899PAPS   C2B32537  16.237  14.563   4.194  0.1015 -0.0219 -0.0077
 2899PAPS   C3B32538  16.180  14.093   4.411  0.0155 -0.2849  0.3696
 2899PAPS   C4B32539  16.056  13.617   4.480 -0.1759 -0.1784  0.4635
 2900PAPS   CNO32540  12.172  10.546   3.205 -0.0200  0.0613 -0.2442
 2900PAPS   PO432541  12.341  10.519   3.555 -0.1569  0.1603 -0.1460
 2900PAPS   GL132542  12.392  10.643   3.987  0.1041 -0.4147  0.0435
 2900PAPS   GL232543  12.478  10.922   3.907 -0.3048 -0.2002 -0.0462
 2900PAPS   C1A32544  12.672  10.680   4.311 -0.2417 -0.2995 -0.5435
 2900PAPS   D2A32545  12.879  11.008   4.538 -0.1701  0.3427  0.0881
 2900PAPS   D3A32546  13.210  11.231   4.857  0.1672  0.1396 -0.0669
 2900PAPS   D4A32547  13.431  11.245   5.239 -0.2072 -0.1161 -0.0181
 2900PAPS   C5A32548  13.242  10.882   5.458 -0.0255  0.0055  0.2129
 2900PAPS   C1B32549  12.264  11.028   4.190  0.0218  0.2412  0.1845
 2900PAPS   C2B32550  12.398  11.128   4.649  0.0520 -0.2223  0.1621
 2900PAPS   C3B32551  12.673  11.085   5.069 -0.0039 -0.2077 -0.0029
 2900PAPS   C4B32552  12.798  10.864   5.475  0.1164  0.0164  0.3053
 2901PAPS   CNO32553  15.800  23.971   3.255  0.0124 -0.2161 -0.1668
 2901PAPS   PO432554  15.773  24.272   3.494 -0.1478 -0.0990  0.0597
 2901PAPS   GL132555  15.779  24.213   3.954  0.1219  0.0367  0.2196
 2901PAPS   GL232556  15.522  24.461   3.995 -0.2608 -0.1532  0.2410
 2901PAPS   C1A32557  16.048  24.030   4.203  0.3240  0.0029  0.1599
 2901PAPS   D2A32558  16.238  23.853   4.490  0.1742 -0.2323 -0.1273
 2901PAPS   D3A32559  16.302  24.138   4.794 -0.2012 -0.2080 -0.2652
 2901PAPS   D4A32560  16.385  24.435   5.170 -0.4306 -0.2169 -0.0020
 2901PAPS   C5A32561  16.775  24.714   5.318 -0.0194 -0.0108  0.0238
 2901PAPS   C1B32562  15.519  24.677   4.336 -0.1730  0.0037 -0.0309
 2901PAPS   C2B32563  15.512  24.916   4.742 -0.1185  0.0197  0.4133
 2901PAPS   C3B32564  15.345  24.711   5.157  0.2938 -0.1502 -0.2523
 2901PAPS   C4B32565  15.406  24.281   5.429 -0.0387  0.0873 -0.0595
 2902PAPS   CNO32566  24.510  19.611   3.306  0.0978  0.0194  0.0239
 2902PAPS   PO432567  24.420  19.248   3.352 -0.0099  0.2878 -0.3105
 2902PAPS   GL132568  24.405  19.105   3.722  0.1415  0.1251  0.5436
 2902PAPS   GL232569  24.324  18.787   3.602  0.0606 -0.2615  0.3003
 2902PAPS   C1A32570  24.645  19.126   4.006 -0.2999  0.1070  0.3375
 2902PAPS   D2A32571  24.993  19.317   4.087  0.0254  0.2613 -0.3661
 2902PAPS   D3A32572  25.250  19.678   3.903  0.0882  0.3168  0.1426
 2902PAPS   D4A32573  25.471  20.054   4.181  0.0870  0.1029  0.2209
 2902PAPS   C5A32574  25.214  19.709   4.403 -0.0184 -0.0768  0.3183
 2902PAPS   C1B32575  24.204  18.749   4.029 -0.0853 -0.1447 -0.1978
 2902PAPS   C2B32576  24.181  18.650   4.464 -0.4500 -0.1806  0.1374
 2902PAPS   C3B32577  24.129  18.672   4.935  0.1072  0.0930  0.3481
 2902PAPS   C4B32578  24.130  18.628   5.420  0.2635 -0.0989 -0.1868
 2903PAPS   CNO32579  16.538  27.192   3.629 -0.0623 -0.1844 -0.1793
 2903PAPS   PO432580  16.306  27.040   3.895 -0.0262  0.2744 -0.3664
 2903PAPS   GL132581  16.503  27.125   4.184  0.1657  0.1277  0.1274
 2903PAPS   GL232582  16.244  27.336   4.360  0.1238  0.4184  0.3548
 2903PAPS   C1A32583  16.821  27.076   4.327 -0.0078  0.6786  0.2997
 2903PAPS   D2A32584  17.048  27.070   4.630  0.0064  0.2904  0.0852
 2903PAPS   D3A32585  17.212  26.719   4.708  0.0843 -0.1594  0.0884
 2903PAPS   D4A32586  17.233  26.928   5.136 -0.1447 -0.1449 -0.0357
 2903PAPS   C5A32587  17.322  26.534   5.313  0.0880  0.0517  0.0490
 2903PAPS   C1B32588  16.359  27.275   4.788  0.0271 -0.1210  0.4990
 2903PAPS   C2B32589  16.327  27.290   5.304 -0.2193  0.0472 -0.0594
 2903PAPS   C3B32590  15.975  27.186   5.610  0.0841  0.1309 -0.1004
 2903PAPS   C4B32591  15.517  27.438   5.657  0.0465 -0.2081 -0.0736
 2904PAPS   CNO32592  23.093  25.915   3.206 -0.2695  0.0691  0.1037
 2904PAPS   PO432593  23.269  26.225   3.241  0.0173  0.5678  0.0973
 2904PAPS   GL132594  23.114  26.424   3.531  0.1485  0.0418  0.0449
 2904PAPS   GL232595  22.774  26.323   3.559 -0.0805 -0.1638  0.3543
 2904PAPS   C1A32596  23.288  26.570   3.834 -0.2500  0.3207 -0.2888
 2904PAPS   D2A32597  23.642  26.549   4.038 -0.1649 -0.0405 -0.1614
 2904PAPS   D3A32598  24.036  26.705   3.812 -0.3026  0.0705  0.0179
 2904PAPS   D4A32599  23.780  27.044   4.023  0.0220 -0.2561  0.0914
 2904PAPS   C5A32600  23.552  26.900   4.373 -0.0029  0.3118 -0.0569
 2904PAPS   C1B32601  22.694  25.982   3.844  0.1813  0.0466  0.1628
 2904PAPS   C2B32602  22.668  25.685   4.276  0.0163  0.3259  0.1961
 2904PAPS   C3B32603  22.688  25.391   4.607 -0.0066  0.1685 -0.1724
 2904PAPS   C4B32604  22.490  25.406   5.040  0.0235  0.0989  0.1042
 2905PAPS   CNO32605  25.125  23.285   3.138  0.1324 -0.4865 -0.0002
 2905PAPS   PO432606  25.231  23.608   3.379 -0.0655 -0.0247  0.2049
 2905PAPS   GL132607  25.404  23.552   3.810  0.1175 -0.0406  0.2928
 2905PAPS   GL232608  25.159  23.364   3.801  0.1718  0.2695 -0.0626
 2905PAPS   C1A32609  25.472  23.853   4.003 -0.0486  0.1046  0.1019
 2905PAPS   D2A32610  25.704  24.017   4.274 -0.0406 -0.1377 -0.0648
 2905PAPS   D3A32611  25.831  23.864   4.673 -0.2679  0.2947 -0.0924
 2905PAPS   D4A32612  26.125  23.769   4.978 -0.2894 -0.0686 -0.2307
 2905PAPS   C5A32613  26.618  23.893   4.946 -0.0028 -0.1286  0.0918
 2905PAPS   C1B32614  25.270  23.174   4.180  0.1136  0.2309 -0.3293
 2905PAPS   C2B32615  25.036  23.080   4.645  0.2807  0.1301  0.1197
 2905PAPS   C3B32616  24.820  22.868   5.020 -0.0696 -0.1327  0.3534
 2905PAPS   C4B32617  24.323  22.728   5.110 -0.1099  0.0063 -0.1391
 2906PAPS   CNO32618   0.568   7.796   4.002 -0.2793  0.1819  0.2805
 2906PAPS   PO432619   0.285   7.779   3.739 -0.1683 -0.0509  0.0970
 2906PAPS   GL132620   0.061   7.422   3.963  0.0045 -0.5245  0.1581
 2906PAPS   GL232621   0.229   7.503   4.200  0.4053  0.0573 -0.1396
 2906PAPS   C1A32622  -0.314   7.480   4.043 -0.0515 -0.0202 -0.0891
 2906PAPS   D2A32623  -0.407   7.506   4.415  0.0498 -0.1594 -0.1012
 2906PAPS   D3A32624  -0.599   7.486   4.782  0.1530 -0.2274 -0.1108
 2906PAPS   D4A32625  -0.598   7.428   5.252  0.2015 -0.5807 -0.2050
 2906PAPS   C5A32626  -0.653   7.031   5.473 -0.5930 -0.0356  0.3721
 2906PAPS   C1B32627  -0.004   7.561   4.540  0.2249 -0.0464 -0.3165
 2906PAPS   C2B32628  -0.114   7.529   5.118  0.1051  0.0444 -0.0663
 2906PAPS   C3B32629  -0.091   7.761   5.557  0.1728 -0.0824  0.1250
 2906PAPS   C4B32630  -0.003   7.942   6.027 -0.2562 -0.1203  0.1572
 2907PAPS   CNO32631  18.419  11.056   3.192 -0.0397 -0.0470 -0.1031
 2907PAPS   PO432632  18.702  10.942   3.344  0.0477 -0.0735  0.0121
 2907PAPS   GL132633  18.546  10.895   3.598  0.2257  0.1019 -0.2750
 2907PAPS   GL232634  18.253  10.712   3.515 -0.1793 -0.1073 -0.7092
 2907PAPS   C1A32635  18.748  10.877   3.897 -0.0004  0.0070 -0.0697
 2907PAPS   D2A32636  19.002  11.169   4.016 -0.1831  0.0521 -0.0979
 2907PAPS   D3A32637  19.140  11.087   4.389 -0.1710 -0.3128 -0.1564
 2907PAPS   D4A32638  19.600  11.146   4.537 -0.0660 -0.3043 -0.1858
 2907PAPS   C5A32639  20.059  11.196   4.302  0.0122  0.3384 -0.1138
 2907PAPS   C1B32640  17.841  10.848   3.647 -0.0052 -0.0044 -0.3132
 2907PAPS   C2B32641  17.507  10.732   4.040 -0.3462 -0.1071  0.4758
 2907PAPS   C3B32642  17.488  10.928   4.505  0.0030  0.0250  0.0205
 2907PAPS   C4B32643  17.811  11.264   4.839 -0.0700 -0.0487  0.0042
 2908PAPS   CNO32644  23.210  25.140   2.832 -0.3062 -0.0965 -0.2100
 2908PAPS   PO432645  23.127  24.960   3.138 -0.0028  0.2863 -0.1777
 2908PAPS   GL132646  22.859  24.849   3.525 -0.1488 -0.2537  0.1017
 2908PAPS   GL232647  23.134  24.895   3.646  0.3046  0.1585  0.0560
 2908PAPS   C1A32648  22.716  24.928   3.870  0.1839  0.3076 -0.0783
 2908PAPS   D2A32649  22.683  24.991   4.301 -0.0946  0.0978  0.1401
 2908PAPS   D3A32650  22.681  24.851   4.717  0.1730 -0.3344 -0.2726
 2908PAPS   D4A32651  23.002  24.618   4.786 -0.3530  0.0925 -0.0097
 2908PAPS   C5A32652  23.325  24.778   5.039 -0.2414 -0.0467  0.1721
 2908PAPS   C1B32653  23.148  25.050   4.021 -0.0390  0.5274  0.2701
 2908PAPS   C2B32654  23.137  25.147   4.531  0.0865 -0.0297  0.0747
 2908PAPS   C3B32655  23.017  25.141   4.969 -0.0387  0.3554 -0.3202
 2908PAPS   C4B32656  23.135  25.214   5.422  0.2526 -0.0198 -0.4227
 2909PAPS   CNO32657  21.670  19.279   3.611  0.0530 -0.2038 -0.1830
 2909PAPS   PO432658  21.588  19.642   3.669 -0.1418  0.1335 -0.0414
 2909PAPS   GL132659  21.869  19.758   3.944  0.2023 -0.4762 -0.2471
 2909PAPS   GL232660  22.012  19.599   3.856 -0.2418 -0.0569  0.2873
 2909PAPS   C1A32661  21.780  20.050   4.168  0.0525  0.0656  0.2141
 2909PAPS   D2A32662  21.614  20.411   4.292 -0.2273  0.0350 -0.1414
 2909PAPS   D3A32663  21.418  20.630   4.691  0.0923  0.0413  0.0279
 2909PAPS   D4A32664  21.460  20.372   5.032  0.1411 -0.1898  0.0644
 2909PAPS   C5A32665  21.301  20.325   5.477 -0.2005  0.0536 -0.0940
 2909PAPS   C1B32666  21.985  19.250   4.142  0.0289 -0.3791 -0.0770
 2909PAPS   C2B32667  22.304  19.059   4.491 -0.0443 -0.0272 -0.1489
 2909PAPS   C3B32668  22.337  19.073   5.002  0.1031 -0.2336  0.0665
 2909PAPS   C4B32669  22.273  19.167   5.462  0.0008  0.0780 -0.2254
 2910PAPS   CNO32670  16.483  24.996   3.597  0.2299  0.1999 -0.1855
 2910PAPS   PO432671  16.254  25.063   3.884 -0.2612 -0.0279 -0.2159
 2910PAPS   GL132672  16.350  24.923   4.242  0.2060 -0.3263 -0.3544
 2910PAPS   GL232673  16.111  25.266   4.312 -0.0024  0.4847 -0.2437
 2910PAPS   C1A32674  16.538  25.004   4.515 -0.1730  0.1280 -0.0042
 2910PAPS   D2A32675  16.568  24.897   4.902 -0.1224  0.0119  0.3147
 2910PAPS   D3A32676  16.961  25.114   5.154  0.2481  0.2519 -0.0410
 2910PAPS   D4A32677  17.322  25.413   5.208  0.0908  0.0746 -0.0549
 2910PAPS   C5A32678  17.711  25.289   5.430  0.1525 -0.1146  0.2547
 2910PAPS   C1B32679  16.286  25.449   4.685  0.0349  0.0377 -0.0319
 2910PAPS   C2B32680  16.538  25.338   5.102 -0.1968  0.2177 -0.0269
 2910PAPS   C3B32681  16.808  25.331   5.588 -0.0463 -0.0426  0.3785
 2910PAPS   C4B32682  17.243  25.319   5.872 -0.1558 -0.0943  0.1090
 2911PAPS   CNO32683   8.038   6.890   2.689  0.0276 -0.1281  0.0672
 2911PAPS   PO432684   7.834   7.062   2.958 -0.0520 -0.2793 -0.2567
 2911PAPS   GL132685   7.629   6.987   3.366 -0.0610  0.0892 -0.1165
 2911PAPS   GL232686   7.437   7.213   3.311 -0.2436  0.1215 -0.3067
 2911PAPS   C1A32687   7.633   6.953   3.744  0.1519  0.1008 -0.1605
 2911PAPS   D2A32688   7.475   6.808   4.045  0.0784 -0.0695  0.1101
 2911PAPS   D3A32689   7.360   6.529   4.456 -0.0490 -0.1153 -0.5764
 2911PAPS   D4A32690   7.081   6.525   4.075 -0.1471  0.2022 -0.0044
 2911PAPS   C5A32691   6.649   6.382   3.902  0.1550  0.3309  0.2372
 2911PAPS   C1B32692   7.343   7.332   3.727 -0.0194  0.1926  0.1149
 2911PAPS   C2B32693   7.492   7.326   4.238  0.0816  0.0045  0.0493
 2911PAPS   C3B32694   7.507   7.167   4.730  0.0561  0.1067 -0.1430
 2911PAPS   C4B32695   7.761   7.074   5.171  0.0576 -0.1742 -0.1403
 2912PAPS   CNO32696  20.945  17.187   3.211  0.0407  0.0387  0.1026
 2912PAPS   PO432697  21.061  17.571   3.265  0.0033  0.2122  0.0986
 2912PAPS   GL132698  21.224  17.423   3.634 -0.3658 -0.1345  0.3268
 2912PAPS   GL232699  21.317  17.156   3.496  0.3710  0.5101 -0.1909
 2912PAPS   C1A32700  21.400  17.568   3.940 -0.0929  0.0085  0.1340
 2912PAPS   D2A32701  21.537  17.616   4.297 -0.3198  0.0583 -0.1650
 2912PAPS   D3A32702  21.832  17.597   4.572  0.0482  0.2931 -0.0349
 2912PAPS   D4A32703  21.444  17.534   4.844 -0.0791  0.0283  0.1675
 2912PAPS   C5A32704  20.999  17.737   4.615 -0.0319 -0.2519 -0.2349
 2912PAPS   C1B32705  21.646  17.244   3.841 -0.3677  0.0686 -0.2360
 2912PAPS   C2B32706  21.880  17.158   4.255  0.0824  0.2510 -0.1707
 2912PAPS   C3B32707  21.911  17.121   4.745  0.0656  0.1768 -0.0794
 2912PAPS   C4B32708  21.870  17.060   5.177 -0.0778 -0.0291 -0.1196
 2913PAPS   CNO32709  19.898   6.319   2.899  0.0691  0.0907 -0.1217
 2913PAPS   PO432710  19.550   6.340   3.042  0.0489 -0.1967 -0.0090
 2913PAPS   GL132711  19.545   6.226   3.402 -0.0939 -0.0724 -0.0501
 2913PAPS   GL232712  19.650   6.541   3.438  0.1247  0.2557 -0.0287
 2913PAPS   C1A32713  19.272   6.171   3.699  0.0059 -0.3538 -0.0699
 2913PAPS   D2A32714  18.926   6.012   3.880  0.0248  0.2888 -0.0611
 2913PAPS   D3A32715  19.071   5.821   4.334  0.1881 -0.1446 -0.1754
 2913PAPS   D4A32716  19.206   5.435   4.288  0.2914  0.2774  0.0452
 2913PAPS   C5A32717  19.181   5.027   4.572  0.2982 -0.2765 -0.1486
 2913PAPS   C1B32718  19.827   6.718   3.819 -0.1734 -0.0852 -0.1368
 2913PAPS   C2B32719  19.877   7.046   4.154 -0.2474 -0.0009  0.0870
 2913PAPS   C3B32720  19.949   7.107   4.574 -0.1072  0.3583 -0.0424
 2913PAPS   C4B32721  19.878   7.543   4.788  0.0104  0.3181  0.0639
 2914PAPS   CNO32722  20.070  25.040   3.413 -0.1722 -0.0551 -0.1605
 2914PAPS   PO432723  20.355  24.826   3.306 -0.0653 -0.0093 -0.0276
 2914PAPS   GL132724  20.764  24.799   3.641  0.2519  0.1666  0.0268
 2914PAPS   GL232725  20.437  24.709   3.768  0.0176  0.0517  0.1638
 2914PAPS   C1A32726  20.882  24.964   3.956 -0.0130  0.1951 -0.1197
 2914PAPS   D2A32727  20.609  25.067   4.286  0.0958 -0.2312 -0.1457
 2914PAPS   D3A32728  20.700  25.190   4.673 -0.1024 -0.3231 -0.1945
 2914PAPS   D4A32729  20.450  25.256   5.022  0.0520 -0.1449 -0.0509
 2914PAPS   C5A32730  20.769  25.513   5.228  0.0345 -0.0107  0.0473
 2914PAPS   C1B32731  20.204  24.747   4.176 -0.2774  0.0831  0.2500
 2914PAPS   C2B32732  20.363  24.863   4.662 -0.0286 -0.1738 -0.1337
 2914PAPS   C3B32733  20.171  24.749   5.086  0.0414  0.1668  0.1269
 2914PAPS   C4B32734  20.124  24.396   5.362 -0.1089  0.4609 -0.0319
 2915PAPS   CNO32735  26.328  27.130   3.474  0.0014  0.1680 -0.0260
 2915PAPS   PO432736  25.979  27.217   3.373 -0.0550  0.1921  0.2019
 2915PAPS   GL132737  25.697  27.307   3.573 -0.0525  0.1377  0.0418
 2915PAPS   GL232738  25.582  27.030   3.524  0.0565 -0.1659 -0.1295
 2915PAPS   C1A32739  25.699  27.343   3.919  0.0080  0.4166  0.1844
 2915PAPS   D2A32740  25.601  27.680   4.140  0.0734 -0.3041  0.1124
 2915PAPS   D3A32741  25.763  27.926   4.493 -0.3027  0.2399 -0.1432
 2915PAPS   D4A32742  25.922  27.828   4.898 -0.0501  0.2171  0.2265
 2915PAPS   C5A32743  25.979  27.524   5.264  0.1281 -0.1828 -0.1991
 2915PAPS   C1B32744  25.578  26.735   3.894  0.1432  0.2494 -0.1446
 2915PAPS   C2B32745  25.774  26.575   4.390 -0.0304  0.3298  0.1730
 2915PAPS   C3B32746  25.799  26.499   4.931 -0.0534  0.2722  0.0792
 2915PAPS   C4B32747  25.575  26.469   5.402  0.2952  0.0904 -0.1731
 2916PAPS   CNO32748  15.386  15.132   3.420  0.1092 -0.3225 -0.3681
 2916PAPS   PO432749  15.628  15.485   3.412  0.0317 -0.1886 -0.2237
 2916PAPS   GL132750  15.649  15.616   3.848 -0.2832 -0.4956 -0.3307
 2916PAPS   GL232751  15.367  15.538   3.887  0.0399  0.2413  0.1231
 2916PAPS   C1A32752  15.960  15.655   4.114 -0.1073 -0.0902 -0.4061
 2916PAPS   D2A32753  16.175  15.396   4.376 -0.0364  0.3267  0.0881
 2916PAPS   D3A32754  15.947  15.426   4.695  0.0071 -0.2262  0.1127
 2916PAPS   D4A32755  15.972  15.107   4.989 -0.0794  0.3256  0.1055
 2916PAPS   C5A32756  15.978  14.976   5.434 -0.1418 -0.0466 -0.2911
 2916PAPS   C1B32757  15.096  15.422   4.161 -0.3449 -0.1223 -0.3989
 2916PAPS   C2B32758  14.677  15.158   4.220 -0.0688  0.0268  0.2153
 2916PAPS   C3B32759  14.501  14.705   4.240 -0.2022 -0.2278  0.1375
 2916PAPS   C4B32760  14.097  14.432   4.336 -0.1169  0.0620  0.2079
 2917PAPS   CNO32761   9.847  13.916   2.833 -0.2590  0.0045 -0.0646
 2917PAPS   PO432762  10.019  14.141   3.065 -0.2668  0.3301  0.1404
 2917PAPS   GL132763  10.028  14.163   3.466  0.0762 -0.0110 -0.1305
 2917PAPS   GL232764   9.856  14.139   3.674  0.1529 -0.4839  0.0334
 2917PAPS   C1A32765  10.304  14.031   3.676  0.2193  0.1625 -0.0011
 2917PAPS   D2A32766  10.524  14.276   3.883 -0.1255  0.2420  0.0633
 2917PAPS   D3A32767  10.483  14.152   4.315 -0.0506 -0.1591 -0.0849
 2917PAPS   D4A32768  10.508  14.164   4.752  0.1255 -0.0949 -0.0343
 2917PAPS   C5A32769  10.786  14.500   4.531 -0.0124  0.0235 -0.0363
 2917PAPS   C1B32770   9.931  14.255   4.060  0.3677  0.2497 -0.1275
 2917PAPS   C2B32771   9.953  14.229   4.544  0.0946  0.4625  0.2207
 2917PAPS   C3B32772   9.630  14.292   4.956 -0.0244 -0.2694  0.0197
 2917PAPS   C4B32773   9.148  14.312   5.084 -0.2910  0.0358  0.0670
 2918PAPS   CNO32774  24.283  15.287   3.253  0.2101  0.0881  0.1984
 2918PAPS   PO432775  24.363  15.627   3.370  0.0871  0.1058  0.0030
 2918PAPS   GL132776  24.562  15.799   3.699 -0.1890 -0.1525 -0.0445
 2918PAPS   GL232777  24.408  16.049   3.635  0.0115 -0.1799  0.2807
 2918PAPS   C1A32778  24.689  15.596   3.988 -0.2504 -0.2198  0.0488
 2918PAPS   D2A32779  24.926  15.405   4.183  0.1367  0.0663 -0.0156
 2918PAPS   D3A32780  24.967  15.365   4.660 -0.0649 -0.0319  0.1068
 2918PAPS   D4A32781  24.724  15.422   5.058 -0.1829  0.1997  0.1841
 2918PAPS   C5A32782  24.349  15.044   5.166  0.1612  0.0962 -0.0865
 2918PAPS   C1B32783  24.176  16.268   3.934 -0.1087 -0.0527 -0.1051
 2918PAPS   C2B32784  24.112  16.200   4.448 -0.1628  0.0059  0.2654
 2918PAPS   C3B32785  23.984  16.168   4.848  0.4587 -0.3320  0.0005
 2918PAPS   C4B32786  23.808  16.197   5.286  0.0435 -0.1705 -0.2674
 2919PAPS   CNO32787  10.379  27.024   3.651 -0.2055 -0.2050  0.2549
 2919PAPS   PO432788  10.368  26.639   3.639  0.0657 -0.1554  0.0234
 2919PAPS   GL132789  10.323  26.497   3.963  0.0266 -0.0452 -0.0003
 2919PAPS   GL232790  10.441  26.697   4.160  0.1603 -0.1183  0.0915
 2919PAPS   C1A32791  10.143  26.137   4.086  0.0172  0.1223  0.3054
 2919PAPS   D2A32792  10.033  25.822   3.902 -0.0360  0.1803  0.0741
 2919PAPS   D3A32793  10.319  25.444   3.987  0.1982 -0.0277 -0.0465
 2919PAPS   D4A32794  10.685  25.351   4.136 -0.2372 -0.1112  0.2746
 2919PAPS   C5A32795  10.871  25.689   4.433  0.0831  0.3852  0.0532
 2919PAPS   C1B32796  10.415  26.676   4.553  0.3220 -0.0354 -0.2928
 2919PAPS   C2B32797  10.347  26.641   5.017 -0.2199 -0.4640 -0.0300
 2919PAPS   C3B32798  10.198  26.965   5.409 -0.1431 -0.0608 -0.2179
 2919PAPS   C4B32799  10.549  27.328   5.599  0.1815  0.2353 -0.1727
 2920PAPS   CNO32800  25.020  15.091   3.236 -0.1171 -0.0510  0.2444
 2920PAPS   PO432801  24.926  15.005   3.593 -0.3996  0.1866  0.0711
 2920PAPS   GL132802  25.198  15.101   3.968  0.2604  0.1563  0.2266
 2920PAPS   GL232803  25.091  14.820   3.946 -0.2205  0.0388 -0.1756
 2920PAPS   C1A32804  25.360  15.181   4.214 -0.1509 -0.0058 -0.0358
 2920PAPS   D2A32805  25.567  15.264   4.507  0.1911  0.0946 -0.1118
 2920PAPS   D3A32806  25.536  15.246   4.989  0.0701 -0.1310 -0.0215
 2920PAPS   D4A32807  25.279  15.025   5.304 -0.2622 -0.4321  0.3071
 2920PAPS   C5A32808  25.029  15.407   5.466 -0.0801  0.2710 -0.1948
 2920PAPS   C1B32809  24.795  14.534   4.188 -0.1104 -0.0605  0.0289
 2920PAPS   C2B32810  24.765  14.398   4.698 -0.1694  0.1005 -0.1806
 2920PAPS   C3B32811  24.676  14.376   5.159 -0.3868  0.0559 -0.1554
 2920PAPS   C4B32812  24.375  14.648   5.446  0.0581 -0.1109  0.0156
 2921PAPS   CNO32813   8.162   5.151   2.643 -0.0496  0.0777 -0.1520
 2921PAPS   PO432814   8.134   5.438   2.896 -0.2517 -0.2699  0.0161
 2921PAPS   GL132815   8.230   5.314   3.303  0.2587 -0.0254 -0.1115
 2921PAPS   GL232816   8.184   5.528   3.431  0.3753 -0.1056 -0.1922
 2921PAPS   C1A32817   7.984   5.057   3.464  0.0851 -0.1352  0.1073
 2921PAPS   D2A32818   8.025   4.698   3.631 -0.1506  0.0969  0.1763
 2921PAPS   D3A32819   8.031   4.324   3.897  0.1223 -0.2655  0.0870
 2921PAPS   D4A32820   8.235   3.989   4.085 -0.0904  0.2948  0.3071
 2921PAPS   C5A32821   8.664   3.784   4.149 -0.2650 -0.1507 -0.0313
 2921PAPS   C1B32822   8.515   5.641   3.838  0.0662 -0.1256 -0.2750
 2921PAPS   C2B32823   8.692   5.710   4.370  0.0684  0.3096 -0.0923
 2921PAPS   C3B32824   8.643   5.831   4.788  0.3548  0.0258 -0.1161
 2921PAPS   C4B32825   8.690   5.816   5.306 -0.0616 -0.2644  0.0040
 2922PAPS   CNO32826  17.083  16.192   3.515 -0.0702 -0.0594 -0.2301
 2922PAPS   PO432827  16.864  15.892   3.489 -0.2494  0.2792  0.0111
 2922PAPS   GL132828  17.042  15.609   3.861  0.1059 -0.1195  0.1453
 2922PAPS   GL232829  17.227  15.905   3.879 -0.0701 -0.4450  0.1234
 2922PAPS   C1A32830  16.908  15.406   4.140  0.1522  0.0238  0.0416
 2922PAPS   D2A32831  16.661  15.629   4.352 -0.0934 -0.1287  0.1054
 2922PAPS   D3A32832  16.708  16.071   4.574  0.3480  0.1659 -0.0598
 2922PAPS   D4A32833  16.451  16.206   4.899 -0.0106  0.1327  0.0740
 2922PAPS   C5A32834  16.224  16.052   5.287  0.1990 -0.1908 -0.2191
 2922PAPS   C1B32835  17.155  16.270   4.135  0.0332 -0.0104  0.3600
 2922PAPS   C2B32836  16.977  16.471   4.522 -0.0667  0.0063  0.0291
 2922PAPS   C3B32837  16.926  16.550   4.963  0.1141  0.0282 -0.3443
 2922PAPS   C4B32838  16.925  16.617   5.449 -0.2566  0.1924 -0.0130
 2923PAPS   CNO32839  13.566  22.122   3.025 -0.0373  0.1131  0.0229
 2923PAPS   PO432840  13.309  22.062   3.308  0.2055  0.1375 -0.0912
 2923PAPS   GL132841  13.332  22.039   3.683  0.0758  0.3893 -0.0007
 2923PAPS   GL232842  13.556  21.935   3.676 -0.0996 -0.1870 -0.1019
 2923PAPS   C1A32843  13.238  21.987   4.088  0.4060 -0.2699 -0.1516
 2923PAPS   D2A32844  13.215  21.985   4.500 -0.0493  0.0524  0.0266
 2923PAPS   D3A32845  13.242  21.773   4.814 -0.3698  0.0429  0.3191
 2923PAPS   D4A32846  13.175  22.050   5.111  0.2584 -0.3294  0.0906
 2923PAPS   C5A32847  12.787  22.051   4.880  0.3358 -0.1160 -0.3045
 2923PAPS   C1B32848  13.653  22.110   4.087 -0.0448 -0.0117 -0.3791
 2923PAPS   C2B32849  13.865  21.891   4.482  0.1276 -0.0353  0.0018
 2923PAPS   C3B32850  14.057  21.679   4.817 -0.2353  0.0957 -0.0382
 2923PAPS   C4B32851  14.093  21.396   5.166  0.1543 -0.0154 -0.1160
 2924PAPS   CNO32852   2.932  23.832   3.867 -0.0407 -0.2285 -0.0781
 2924PAPS   PO432853   2.566  23.883   3.941 -0.1221 -0.0532  0.1289
 2924PAPS   GL132854   2.759  24.205   4.222 -0.6680  0.2452 -0.1459
 2924PAPS   GL232855   2.710  23.981   4.350 -0.2582  0.2824 -0.0700
 2924PAPS   C1A32856   2.733  24.490   4.426 -0.0453 -0.3232  0.2991
 2924PAPS   D2A32857   2.794  24.806   4.677  0.2450 -0.1112 -0.3740
 2924PAPS   D3A32858   2.772  24.893   5.164  0.2371  0.1596 -0.0526
 2924PAPS   D4A32859   2.675  24.889   5.615 -0.2317  0.1598 -0.0107
 2924PAPS   C5A32860   3.023  24.826   5.925 -0.0307 -0.1008  0.0089
 2924PAPS   C1B32861   2.845  23.656   4.645  0.1591  0.0382 -0.1773
 2924PAPS   C2B32862   2.983  23.523   5.142 -0.4514 -0.2185 -0.1406
 2924PAPS   C3B32863   3.171  23.618   5.579 -0.0201 -0.2064  0.2953
 2924PAPS   C4B32864   3.221  23.723   6.069  0.2582  0.0585 -0.2093
 2925PAPS   CNO32865  18.268  26.360   3.304 -0.2498 -0.0581  0.0700
 2925PAPS   PO432866  18.147  26.060   3.506  0.0399  0.1532 -0.1961
 2925PAPS   GL132867  18.270  26.139   3.908  0.1084 -0.1586  0.0581
 2925PAPS   GL232868  18.381  26.453   3.789 -0.0785  0.2571 -0.0018
 2925PAPS   C1A32869  18.495  26.110   4.206 -0.2923 -0.2134 -0.2751
 2925PAPS   D2A32870  18.745  26.072   4.484  0.4119  0.0143  0.0809
 2925PAPS   D3A32871  18.882  25.875   4.801  0.1219  0.1614  0.0928
 2925PAPS   D4A32872  18.941  26.187   5.069 -0.1393 -0.3663  0.1004
 2925PAPS   C5A32873  18.917  26.264   5.487 -0.0419 -0.0120 -0.1934
 2925PAPS   C1B32874  18.647  26.505   4.157 -0.0797  0.0127  0.0074
 2925PAPS   C2B32875  18.851  26.685   4.617  0.2996  0.0378  0.0468
 2925PAPS   C3B32876  19.094  26.673   5.076  0.0767  0.1096  0.0679
 2925PAPS   C4B32877  19.189  26.690   5.613 -0.0311  0.0050  0.1180
 2926PAPS   CNO32878   1.494  25.126   3.572  0.2883  0.0020  0.1557
 2926PAPS   PO432879   1.400  25.181   3.935 -0.1247 -0.0667  0.2759
 2926PAPS   GL132880   1.247  24.833   4.178 -0.1236  0.2345  0.2143
 2926PAPS   GL232881   1.509  24.748   4.228 -0.0983  0.3668  0.2523
 2926PAPS   C1A32882   1.106  24.839   4.540 -0.0110  0.2116 -0.1024
 2926PAPS   D2A32883   1.031  24.695   4.893 -0.0558 -0.3206  0.1873
 2926PAPS   D3A32884   1.207  24.318   5.180  0.1092  0.0742 -0.3172
 2926PAPS   D4A32885   1.431  24.121   5.526 -0.1233 -0.3293  0.3139
 2926PAPS   C5A32886   0.985  23.917   5.541 -0.1983  0.2144  0.1335
 2926PAPS   C1B32887   1.636  24.942   4.584  0.3222  0.2745  0.0788
 2926PAPS   C2B32888   1.842  25.148   4.979 -0.1188  0.1891  0.2177
 2926PAPS   C3B32889   2.195  25.158   5.237 -0.0840 -0.1423  0.0630
 2926PAPS   C4B32890   2.537  25.188   4.887  0.0226  0.1826 -0.0971
 2927PAPS   CNO32891   2.071  12.292   3.152 -0.0289 -0.1372 -0.2445
 2927PAPS   PO432892   2.204  12.111   3.451 -0.0762 -0.4900 -0.1538
 2927PAPS   GL132893   2.040  12.224   3.898  0.1648  0.0736 -0.1405
 2927PAPS   GL232894   2.329  12.253   3.996  0.1690  0.0573  0.4794
 2927PAPS   C1A32895   1.779  12.063   4.046 -0.1113  0.4654  0.1182
 2927PAPS   D2A32896   1.747  11.724   4.225  0.0546  0.2810  0.0767
 2927PAPS   D3A32897   1.939  11.542   4.491 -0.2189 -0.1442  0.0020
 2927PAPS   D4A32898   2.209  11.616   4.829  0.1480 -0.0146  0.1531
 2927PAPS   C5A32899   2.229  11.452   5.244 -0.5410 -0.3353  0.0912
 2927PAPS   C1B32900   2.560  12.276   4.330  0.1747  0.1566 -0.1298
 2927PAPS   C2B32901   2.433  12.073   4.823  0.1360  0.0541 -0.0616
 2927PAPS   C3B32902   2.588  11.835   5.177  0.0723 -0.0832  0.0108
 2927PAPS   C4B32903   2.878  11.857   5.538 -0.3239 -0.0242  0.2311
 2928PAPS   CNO32904  20.860  10.445   2.855  0.2142 -0.3317  0.1449
 2928PAPS   PO432905  20.858  10.699   3.136  0.1086  0.0918  0.1222
 2928PAPS   GL132906  21.009  10.850   3.601 -0.3135 -0.0454 -0.0559
 2928PAPS   GL232907  20.764  10.921   3.670  0.0578  0.1963  0.4885
 2928PAPS   C1A32908  21.277  10.628   3.759  0.0194 -0.0295  0.2003
 2928PAPS   D2A32909  21.600  10.382   3.863  0.1382 -0.1264  0.0034
 2928PAPS   D3A32910  21.642   9.962   4.029 -0.0297 -0.0845  0.1409
 2928PAPS   D4A32911  21.514   9.900   4.476 -0.1440 -0.1567 -0.1156
 2928PAPS   C5A32912  21.590   9.837   4.949 -0.0343  0.1470 -0.1886
 2928PAPS   C1B32913  20.383  10.681   3.761 -0.2331  0.1541 -0.0626
 2928PAPS   C2B32914  20.112  10.597   4.200  0.1240  0.3663 -0.0157
 2928PAPS   C3B32915  19.924  10.761   4.612 -0.2962 -0.1966  0.1391
 2928PAPS   C4B32916  19.678  10.862   5.008 -0.1546 -0.1601 -0.0008
 2929PAPS   CNO32917   3.344  25.478   3.487  0.0972  0.4793 -0.2390
 2929PAPS   PO432918   3.563  25.800   3.493 -0.0545  0.2747 -0.3282
 2929PAPS   GL132919   3.481  25.993   3.855 -0.0117 -0.2992 -0.3157
 2929PAPS   GL232920   3.197  26.064   3.820  0.0289  0.0851  0.0259
 2929PAPS   C1A32921   3.488  26.137   4.199 -0.2677 -0.0172 -0.0942
 2929PAPS   D2A32922   3.547  26.120   4.570 -0.5124  0.5503 -0.0941
 2929PAPS   D3A32923   3.785  26.026   4.983  0.0777 -0.1286 -0.2301
 2929PAPS   D4A32924   3.788  26.350   5.336  0.0248  0.1916 -0.1602
 2929PAPS   C5A32925   3.688  26.591   5.738  0.2375  0.3077 -0.0375
 2929PAPS   C1B32926   3.079  26.326   4.182  0.1036 -0.3044 -0.2940
 2929PAPS   C2B32927   3.120  26.350   4.673  0.2006  0.2063 -0.2044
 2929PAPS   C3B32928   3.249  26.202   5.072  0.2196  0.0011 -0.0827
 2929PAPS   C4B32929   3.484  25.999   5.468 -0.0665  0.0528 -0.1931
 2930PAPS   CNO32930  11.469   5.616   3.304 -0.2208 -0.0428 -0.4667
 2930PAPS   PO432931  11.138   5.790   3.249 -0.0098  0.1153 -0.3194
 2930PAPS   GL132932  11.173   5.875   3.691 -0.4147 -0.2432  0.0841
 2930PAPS   GL232933  11.177   5.544   3.786  0.1903  0.1677  0.1205
 2930PAPS   C1A32934  10.871   6.008   3.848 -0.0369 -0.0669  0.1902
 2930PAPS   D2A32935  10.479   5.938   3.823  0.1352 -0.2050  0.1783
 2930PAPS   D3A32936  10.300   5.509   3.772  0.1832  0.4156 -0.1131
 2930PAPS   D4A32937  10.514   5.092   3.702 -0.0345  0.0139 -0.0227
 2930PAPS   C5A32938  10.542   4.692   3.974 -0.3207 -0.1171  0.2400
 2930PAPS   C1B32939  10.778   5.578   3.990 -0.2053 -0.1821  0.1223
 2930PAPS   C2B32940  10.651   5.912   4.391 -0.1267 -0.0316  0.1016
 2930PAPS   C3B32941  10.486   6.261   4.673 -0.1260  0.0741  0.2883
 2930PAPS   C4B32942  10.627   6.620   4.970  0.0468 -0.1159 -0.1190
 2931PAPS   CNO32943  20.532  16.927   2.930  0.0449  0.1069  0.0063
 2931PAPS   PO432944  20.628  16.551   2.969  0.0023 -0.2441 -0.2977
 2931PAPS   GL132945  20.826  16.592   3.208 -0.2268  0.0910 -0.2561
 2931PAPS   GL232946  21.034  16.417   3.172  0.0992  0.1620 -0.2530
 2931PAPS   C1A32947  20.960  16.771   3.513  0.1266  0.0923  0.2413
 2931PAPS   D2A32948  21.218  16.731   3.792 -0.0483  0.0077  0.0957
 2931PAPS   D3A32949  21.219  17.110   4.144 -0.0325 -0.0374 -0.1907
 2931PAPS   D4A32950  21.070  16.701   4.329 -0.0777  0.0405  0.0762
 2931PAPS   C5A32951  20.763  16.887   4.073  0.0476  0.3652  0.1444
 2931PAPS   C1B32952  21.059  16.345   3.636  0.1160  0.3634  0.0099
 2931PAPS   C2B32953  21.166  16.261   4.132  0.0406  0.2905  0.0410
 2931PAPS   C3B32954  21.296  16.320   4.593 -0.2219  0.1476 -0.0022
 2931PAPS   C4B32955  21.408  16.316   5.050 -0.1067  0.0514  0.0760
 2932PAPS   CNO32956   4.133  24.803   3.751  0.1797  0.3574 -0.0645
 2932PAPS   PO432957   4.524  24.649   3.703  0.2319 -0.0418 -0.0522
 2932PAPS   GL132958   4.656  24.421   4.123 -0.0575 -0.1009  0.5000
 2932PAPS   GL232959   4.411  24.523   4.257  0.1776 -0.0954  0.2464
 2932PAPS   C1A32960   4.877  24.266   4.399  0.0867 -0.2558  0.0661
 2932PAPS   D2A32961   4.802  24.349   4.775  0.1490 -0.1118 -0.3028
 2932PAPS   D3A32962   4.629  24.200   5.175 -0.1075  0.3063 -0.3123
 2932PAPS   D4A32963   4.612  24.269   5.657  0.0120 -0.0983  0.1462
 2932PAPS   C5A32964   4.251  24.204   5.998 -0.0066  0.0341  0.2167
 2932PAPS   C1B32965   4.380  24.425   4.668  0.0530 -0.0621  0.3933
 2932PAPS   C2B32966   4.274  24.573   5.174 -0.1959  0.1141 -0.1881
 2932PAPS   C3B32967   4.079  24.741   5.570  0.2308 -0.1472  0.0624
 2932PAPS   C4B32968   3.765  25.066   5.574  0.1964  0.1685 -0.1044
 2933PAPS   CNO32969   1.126  12.728   2.994 -0.0454  0.3297  0.2119
 2933PAPS   PO432970   1.079  12.739   3.377 -0.3623 -0.1304 -0.1525
 2933PAPS   GL132971   1.103  12.493   3.721  0.2783 -0.1104 -0.3806
 2933PAPS   GL232972   1.183  12.286   3.582  0.1737 -0.1105 -0.2025
 2933PAPS   C1A32973   1.023  12.405   4.065 -0.0784  0.0215  0.0667
 2933PAPS   D2A32974   0.971  12.245   4.431  0.1097 -0.1244  0.0788
 2933PAPS   D3A32975   0.959  12.275   4.889  0.1002 -0.0737  0.2566
 2933PAPS   D4A32976   1.073  12.579   5.148 -0.0857 -0.0513  0.4378
 2933PAPS   C5A32977   1.034  12.453   5.626 -0.0307 -0.2305 -0.2696
 2933PAPS   C1B32978   1.424  12.400   3.992 -0.1659  0.4825  0.2519
 2933PAPS   C2B32979   1.504  12.326   4.466 -0.1101 -0.0298  0.2090
 2933PAPS   C3B32980   1.419  12.430   4.891 -0.2918  0.1213  0.1168
 2933PAPS   C4B32981   1.463  12.345   5.365  0.1214  0.1380  0.1972
 2934PAPS   CNO32982  17.439  27.363   3.318  0.0156  0.0896 -0.0928
 2934PAPS   PO432983  17.281  27.554   3.591  0.0746  0.3553 -0.1046
 2934PAPS   GL132984  17.450  27.609   3.880  0.0982 -0.1785 -0.0904
 2934PAPS   GL232985  17.579  27.414   4.082 -0.3995 -0.2992 -0.1327
 2934PAPS   C1A32986  17.452  27.961   3.990  0.3183  0.1737  0.1330
 2934PAPS   D2A32987  17.467  28.236   4.259 -0.1880 -0.1322 -0.0460
 2934PAPS   D3A32988  17.196  28.290   4.548  0.2226  0.1001 -0.1806
 2934PAPS   D4A32989  17.544  28.083   4.798  0.2160  0.1082  0.0897
 2934PAPS   C5A32990  17.469  27.835   5.255  0.0319  0.1973  0.5200
 2934PAPS   C1B32991  17.667  27.609   4.520  0.3498  0.3028 -0.3482
 2934PAPS   C2B32992  17.869  27.749   4.877 -0.0467  0.2838 -0.0696
 2934PAPS   C3B32993  18.018  27.997   5.301 -0.1293  0.0930  0.3578
 2934PAPS   C4B32994  17.974  28.294   5.728  0.2821 -0.0233 -0.1649
 2935PAPS   CNO32995   8.659  15.846   2.977 -0.3621 -0.1995  0.0536
 2935PAPS   PO432996   9.023  15.726   3.110 -0.1200  0.1177  0.0016
 2935PAPS   GL132997   9.194  15.767   3.556 -0.1669  0.2769  0.2171
 2935PAPS   GL232998   9.161  15.475   3.563  0.1812  0.0158 -0.0999
 2935PAPS   C1A32999   8.958  16.027   3.751  0.0231 -0.1681 -0.0627
 2935PAPS   D2A33000   8.668  16.116   4.007  0.2777 -0.2922 -0.2649
 2935PAPS   D3A33001   8.502  15.994   4.378 -0.0402  0.1944 -0.1855
 2935PAPS   D4A33002   8.122  16.110   4.618  0.0510 -0.1356  0.1195
 2935PAPS   C5A33003   8.257  15.683   4.711  0.1732  0.0853  0.0448
 2935PAPS   C1B33004   9.281  15.395   3.965  0.2388  0.1308  0.0353
 2935PAPS   C2B33005   9.093  15.294   4.432 -0.2462 -0.0614 -0.0788
 2935PAPS   C3B33006   9.065  15.252   4.891 -0.2335  0.1355  0.2762
 2935PAPS   C4B33007   8.942  15.235   5.352 -0.3084  0.3866 -0.1077
 2936PAPS   CNO33008   3.332  27.251   3.582 -0.3466 -0.1877 -0.1521
 2936PAPS   PO433009   3.558  27.130   3.844  0.3186  0.0785 -0.2351
 2936PAPS   GL133010   3.357  26.999   4.190  0.2863  0.0552  0.1725
 2936PAPS   GL233011   3.572  27.078   4.408 -0.0457 -0.4655 -0.3524
 2936PAPS   C1A33012   3.147  26.899   4.455  0.0147 -0.0441 -0.0723
 2936PAPS   D2A33013   2.946  26.795   4.806  0.1672 -0.1058 -0.0559
 2936PAPS   D3A33014   2.925  26.649   5.219  0.0869  0.1680  0.4282
 2936PAPS   D4A33015   2.747  26.707   5.685  0.3080  0.1648 -0.0504
 2936PAPS   C5A33016   2.770  27.166   5.562  0.3778 -0.0213 -0.1489
 2936PAPS   C1B33017   3.426  27.238   4.837 -0.1057 -0.0633  0.0691
 2936PAPS   C2B33018   3.261  27.283   5.278 -0.1770  0.0016  0.5413
 2936PAPS   C3B33019   3.103  27.536   5.627 -0.2926 -0.0961  0.2026
 2936PAPS   C4B33020   2.955  27.758   6.088 -0.1822  0.0576  0.2265
 2937PAPS   CNO33021   6.636   8.275   3.336  0.0444 -0.3774 -0.1172
 2937PAPS   PO433022   6.403   8.016   3.230  0.1768 -0.1262 -0.0251
 2937PAPS   GL133023   6.308   7.965   3.612  0.0124  0.2641 -0.0486
 2937PAPS   GL233024   6.327   8.248   3.708 -0.2839 -0.4011  0.0291
 2937PAPS   C1A33025   6.222   7.820   3.956 -0.2095 -0.0617 -0.0024
 2937PAPS   D2A33026   6.237   7.533   4.297  0.1445  0.0538 -0.3045
 2937PAPS   D3A33027   6.225   7.585   4.729 -0.0254 -0.2517 -0.2433
 2937PAPS   D4A33028   6.042   7.630   5.170  0.2251 -0.0518 -0.4214
 2937PAPS   C5A33029   6.255   7.394   5.530  0.2256  0.1018  0.1580
 2937PAPS   C1B33030   6.485   8.465   4.028  0.0341 -0.0496 -0.0470
 2937PAPS   C2B33031   6.620   8.424   4.498 -0.1000  0.2803 -0.1045
 2937PAPS   C3B33032   6.773   8.286   4.900 -0.0936 -0.0229 -0.0682
 2937PAPS   C4B33033   6.862   7.995   5.259  0.2117  0.2239 -0.0185
 2938PAPS   CNO33034   6.648  22.775   3.773 -0.2543 -0.0030 -0.0805
 2938PAPS   PO433035   6.627  22.861   4.114 -0.2504  0.0669  0.0098
 2938PAPS   GL133036   6.803  23.203   4.294  0.1913  0.2735 -0.1350
 2938PAPS   GL233037   6.509  23.349   4.151  0.0604 -0.0401 -0.1289
 2938PAPS   C1A33038   6.872  23.174   4.691 -0.0097 -0.0425 -0.2422
 2938PAPS   D2A33039   6.591  23.248   5.016  0.1749 -0.0684  0.0296
 2938PAPS   D3A33040   6.693  23.220   5.456  0.1885  0.2339  0.1655
 2938PAPS   D4A33041   6.850  23.228   5.913  0.2957 -0.1735 -0.1002
 2938PAPS   C5A33042   6.737  23.645   6.176 -0.0330 -0.1969 -0.0800
 2938PAPS   C1B33043   6.354  23.239   4.589  0.0463 -0.3575  0.1789
 2938PAPS   C2B33044   6.060  23.325   5.003 -0.1435 -0.1955 -0.2878
 2938PAPS   C3B33045   6.184  23.216   5.455 -0.0358  0.0152  0.2691
 2938PAPS   C4B33046   6.374  23.447   5.849  0.1808 -0.0356  0.2081
 2939PAPS   CNO33047   1.157  15.503   3.447  0.0334  0.2077 -0.0568
 2939PAPS   PO433048   1.071  15.571   3.791  0.0698 -0.0228 -0.1448
 2939PAPS   GL133049   1.341  15.359   4.116  0.3720 -0.3423  0.3588
 2939PAPS   GL233050   1.182  15.123   4.086 -0.1793  0.2234 -0.3073
 2939PAPS   C1A33051   1.477  15.323   4.470 -0.2672  0.0091 -0.1262
 2939PAPS   D2A33052   1.317  14.961   4.639 -0.1061 -0.4046  0.1382
 2939PAPS   D3A33053   1.044  14.632   4.858 -0.1353 -0.0794 -0.2428
 2939PAPS   D4A33054   1.448  14.651   5.131  0.1556 -0.3429  0.5486
 2939PAPS   C5A33055   1.659  14.477   5.520  0.2023 -0.1422 -0.0460
 2939PAPS   C1B33056   1.013  15.249   4.505 -0.1349  0.1362  0.2296
 2939PAPS   C2B33057   1.082  15.264   4.972 -0.0844  0.0798  0.0722
 2939PAPS   C3B33058   1.261  15.336   5.389  0.0551  0.1102 -0.1418
 2939PAPS   C4B33059   1.398  15.261   5.868  0.0114 -0.1366  0.2913
 2940PAPS   CNO33060  22.478  13.508   3.175 -0.1793 -0.1061 -0.0341
 2940PAPS   PO433061  22.798  13.510   3.362 -0.2896 -0.1360 -0.3313
 2940PAPS   GL133062  22.798  13.437   3.760  0.3918  0.0172 -0.1715
 2940PAPS   GL233063  23.017  13.603   3.842  0.1299  0.2864 -0.0618
 2940PAPS   C1A33064  22.589  13.482   3.980 -0.3158  0.0896  0.1656
 2940PAPS   D2A33065  22.368  13.459   4.311 -0.1317 -0.0180 -0.2637
 2940PAPS   D3A33066  22.057  13.259   4.581 -0.0184  0.2564 -0.0746
 2940PAPS   D4A33067  21.738  13.365   4.348  0.3363  0.2385 -0.1430
 2940PAPS   C5A33068  21.559  13.647   3.948  0.1011  0.2710  0.0547
 2940PAPS   C1B33069  22.952  13.765   4.229 -0.2169 -0.2195  0.0275
 2940PAPS   C2B33070  22.848  13.983   4.700  0.1667  0.0970  0.2058
 2940PAPS   C3B33071  22.700  14.197   5.118 -0.2776 -0.2161  0.2202
 2940PAPS   C4B33072  22.208  14.332   5.338  0.1842  0.1155 -0.0964
 2941PAPS   CNO33073  25.471  22.780   3.078 -0.2187 -0.1341  0.0482
 2941PAPS   PO433074  25.370  22.550   3.385  0.0775 -0.1878 -0.1763
 2941PAPS   GL133075  25.476  22.710   3.792  0.1608  0.2453 -0.2119
 2941PAPS   GL233076  25.547  22.518   3.841 -0.0800  0.2609  0.0314
 2941PAPS   C1A33077  25.421  22.785   4.164  0.4736  0.1026  0.0882
 2941PAPS   D2A33078  25.094  22.643   4.304 -0.1219 -0.0444 -0.4190
 2941PAPS   D3A33079  25.176  22.527   4.772  0.3975  0.0663 -0.1929
 2941PAPS   D4A33080  25.559  22.515   5.077  0.0189 -0.5803  0.1673
 2941PAPS   C5A33081  25.820  22.906   5.199 -0.1505  0.2199  0.4558
 2941PAPS   C1B33082  25.989  22.395   4.001 -0.0473  0.0756 -0.0848
 2941PAPS   C2B33083  26.330  22.497   4.381 -0.0899  0.1146  0.0883
 2941PAPS   C3B33084  26.559  22.269   4.707  0.0844 -0.1187 -0.3720
 2941PAPS   C4B33085  26.686  22.155   5.145 -0.2260  0.0091 -0.2143
 2942PAPS   CNO33086  23.718   0.467   3.516  0.2806  0.1954  0.0818
 2942PAPS   PO433087  23.858   0.165   3.343  0.3048 -0.0763 -0.2117
 2942PAPS   GL133088  24.329   0.081   3.541  0.0836  0.1051 -0.0390
 2942PAPS   GL233089  24.223   0.270   3.737 -0.2367  0.0322 -0.0854
 2942PAPS   C1A33090  24.473  -0.234   3.575  0.2465  0.3555 -0.0033
 2942PAPS   D2A33091  24.781  -0.310   3.806 -0.1529 -0.4514 -0.1174
 2942PAPS   D3A33092  24.805  -0.286   4.291  0.0828  0.0291  0.0557
 2942PAPS   D4A33093  24.859  -0.392   4.737 -0.4502  0.2021  0.1610
 2942PAPS   C5A33094  24.742  -0.711   5.066  0.0101  0.1140 -0.0592
 2942PAPS   C1B33095  24.026   0.263   4.133  0.0079 -0.0279  0.3031
 2942PAPS   C2B33096  23.866   0.309   4.621  0.3247  0.0460 -0.4160
 2942PAPS   C3B33097  23.888   0.273   5.069 -0.1991  0.0564 -0.1318
 2942PAPS   C4B33098  23.630   0.538   5.358  0.0736  0.1366  0.0579
 2943PAPS   CNO33099   1.854   0.514   3.319 -0.0866  0.2036  0.1203
 2943PAPS   PO433100   1.641   0.262   3.477  0.3890 -0.0507  0.0739
 2943PAPS   GL133101   1.879   0.227   3.800 -0.1644  0.1033 -0.1053
 2943PAPS   GL233102   1.686   0.177   3.969  0.0832  0.0892 -0.1966
 2943PAPS   C1A33103   2.123   0.471   3.916  0.1470 -0.3777 -0.0757
 2943PAPS   D2A33104   2.476   0.568   3.880 -0.0137  0.0159 -0.0410
 2943PAPS   D3A33105   2.742   0.196   3.859  0.3268 -0.1093  0.2721
 2943PAPS   D4A33106   2.652  -0.103   4.121 -0.1105  0.1075 -0.2340
 2943PAPS   C5A33107   2.270   0.091   4.156  0.0064 -0.0428 -0.1160
 2943PAPS   C1B33108   1.787   0.091   4.434 -0.2101  0.0937  0.1058
 2943PAPS   C2B33109   1.911   0.114   4.918 -0.0753  0.2040  0.0021
 2943PAPS   C3B33110   1.970   0.263   5.367 -0.2001 -0.0987 -0.0833
 2943PAPS   C4B33111   1.814   0.236   5.829  0.0098  0.2681 -0.0041
 2944PAPS   CNO33112  21.815   7.045   3.005 -0.2485  0.0240 -0.0493
 2944PAPS   PO433113  22.071   7.102   3.271  0.0854  0.0618  0.1055
 2944PAPS   GL133114  21.966   6.887   3.720  0.2461 -0.4053 -0.3025
 2944PAPS   GL233115  21.829   7.098   3.830 -0.0593  0.0886 -0.2207
 2944PAPS   C1A33116  21.790   6.530   3.845  0.0901 -0.1095  0.3042
 2944PAPS   D2A33117  21.868   6.398   4.214 -0.2849 -0.1487 -0.0449
 2944PAPS   D3A33118  21.679   6.213   4.653 -0.0211 -0.0739 -0.0048
 2944PAPS   D4A33119  21.477   6.041   4.980 -0.0866  0.5198  0.0281
 2944PAPS   C5A33120  21.090   6.153   5.090  0.1996 -0.1047 -0.1466
 2944PAPS   C1B33121  21.813   6.906   4.169 -0.1626 -0.1798 -0.0709
 2944PAPS   C2B33122  22.011   6.715   4.635 -0.0538 -0.1372 -0.0505
 2944PAPS   C3B33123  22.002   6.469   5.001  0.1092 -0.1360  0.0908
 2944PAPS   C4B33124  21.835   6.162   5.392 -0.1655  0.2103  0.0515
 2945PAPS   CNO33125   4.473  20.097   3.125  0.0223 -0.0216 -0.0563
 2945PAPS   PO433126   4.565  19.840   3.406  0.5384  0.1658  0.0688
 2945PAPS   GL133127   4.465  19.784   3.759 -0.0053 -0.1763 -0.1605
 2945PAPS   GL233128   4.377  19.540   3.745 -0.2767 -0.1684 -0.0711
 2945PAPS   C1A33129   4.611  19.760   4.109  0.3629  0.1202  0.2248
 2945PAPS   D2A33130   4.947  19.756   4.327  0.1226 -0.3218  0.1154
 2945PAPS   D3A33131   5.195  19.954   4.672 -0.1974  0.0736  0.1232
 2945PAPS   D4A33132   4.946  20.272   4.562  0.4771 -0.2412 -0.3078
 2945PAPS   C5A33133   4.545  20.303   4.300 -0.0829 -0.1295  0.3095
 2945PAPS   C1B33134   4.468  19.349   4.150 -0.2000  0.0171  0.2150
 2945PAPS   C2B33135   4.540  19.228   4.602 -0.2122 -0.1498 -0.2602
 2945PAPS   C3B33136   4.392  19.239   5.063 -0.3360  0.0158 -0.1013
 2945PAPS   C4B33137   4.172  19.170   5.413  0.0171 -0.1110  0.3079
 2946PAPS   CNO33138   1.452  25.890   3.334 -0.3177 -0.0276  0.1371
 2946PAPS   PO433139   1.273  26.077   3.635 -0.2906  0.1132  0.2857
 2946PAPS   GL133140   1.335  25.963   4.007  0.0760  0.1396 -0.1096
 2946PAPS   GL233141   1.174  26.197   4.110  0.1728  0.4340  0.1415
 2946PAPS   C1A33142   1.635  25.964   4.127  0.1396 -0.0400  0.1432
 2946PAPS   D2A33143   1.907  26.270   4.067  0.1194 -0.3472 -0.2194
 2946PAPS   D3A33144   2.091  26.456   4.370  0.0736  0.0375  0.0411
 2946PAPS   D4A33145   2.177  26.627   4.752  0.0828 -0.0096  0.1884
 2946PAPS   C5A33146   2.013  26.621   5.207 -0.0249 -0.1507  0.3315
 2946PAPS   C1B33147   1.335  26.024   4.472 -0.1476 -0.2027 -0.1147
 2946PAPS   C2B33148   1.398  26.141   5.019 -0.0750  0.1018 -0.0343
 2946PAPS   C3B33149   1.680  26.250   5.364 -0.2321 -0.1875  0.1706
 2946PAPS   C4B33150   2.045  26.439   5.695 -0.0435 -0.0103 -0.0877
 2947PAPS   CNO33151  24.594  25.119   3.105 -0.0094  0.1084 -0.2627
 2947PAPS   PO433152  24.354  25.027   3.430 -0.2875  0.0243  0.0780
 2947PAPS   GL133153  24.400  24.915   3.850 -0.2281 -0.4088 -0.3048
 2947PAPS   GL233154  24.528  25.205   3.908 -0.4319  0.2160 -0.3266
 2947PAPS   C1A33155  24.329  24.875   4.190 -0.1278 -0.1749 -0.0036
 2947PAPS   D2A33156  24.270  24.739   4.557 -0.0053  0.0881 -0.0778
 2947PAPS   D3A33157  24.277  25.031   4.945 -0.1186  0.3242 -0.0374
 2947PAPS   D4A33158  24.057  25.308   5.098 -0.1350 -0.1870 -0.1822
 2947PAPS   C5A33159  24.380  25.432   5.468  0.4157  0.0172  0.0396
 2947PAPS   C1B33160  24.321  25.467   4.207  0.1022 -0.1574  0.0681
 2947PAPS   C2B33161  24.348  25.931   4.435 -0.0672 -0.2709 -0.1200
 2947PAPS   C3B33162  24.253  26.287   4.793 -0.2724 -0.2477  0.3970
 2947PAPS   C4B33163  24.218  26.827   4.929 -0.2418  0.0594  0.0692
 2948PAPS   CNO33164  10.339  21.841   2.947 -0.1336 -0.1756  0.0378
 2948PAPS   PO433165  10.188  22.170   3.141 -0.1895  0.1368 -0.1076
 2948PAPS   GL133166  10.177  22.047   3.516  0.1417  0.1638 -0.0465
 2948PAPS   GL233167  10.407  22.117   3.635  0.3766  0.2740 -0.0109
 2948PAPS   C1A33168   9.896  21.956   3.722  0.6507 -0.0230  0.2173
 2948PAPS   D2A33169   9.645  22.184   4.006  0.0888  0.1565 -0.0150
 2948PAPS   D3A33170   9.527  22.318   4.428 -0.0401  0.0300  0.3030
 2948PAPS   D4A33171   9.380  21.906   4.585  0.1626 -0.0183  0.1230
 2948PAPS   C5A33172   9.224  21.557   4.807  0.3281  0.0974  0.2273
 2948PAPS   C1B33173  10.441  22.162   4.041 -0.1174  0.2936 -0.1712
 2948PAPS   C2B33174  10.302  22.000   4.550  0.1146  0.2276  0.2021
 2948PAPS   C3B33175  10.244  21.949   4.948  0.1155  0.0780  0.0227
 2948PAPS   C4B33176   9.977  21.620   5.343 -0.1111 -0.3098 -0.2801
 2949PAPS   CNO33177   1.752  10.464   3.284 -0.3086  0.0467  0.2177
 2949PAPS   PO433178   1.673  10.381   3.627 -0.0562  0.0096 -0.0516
 2949PAPS   GL133179   1.971  10.522   3.937 -0.2276  0.1520 -0.1128
 2949PAPS   GL233180   2.031  10.769   3.904 -0.1488  0.0834 -0.2691
 2949PAPS   C1A33181   2.085  10.476   4.284 -0.4792  0.1331  0.1494
 2949PAPS   D2A33182   2.020  10.703   4.612 -0.2356 -0.2709  0.2158
 2949PAPS   D3A33183   2.301  10.595   4.915  0.3161 -0.4180 -0.0354
 2949PAPS   D4A33184   2.760  10.695   5.031  0.0178  0.2743 -0.1937
 2949PAPS   C5A33185   2.625  10.374   5.308 -0.3612 -0.1010  0.1135
 2949PAPS   C1B33186   2.209  11.001   4.157  0.2228 -0.0188  0.2822
 2949PAPS   C2B33187   2.161  11.155   4.648 -0.1739  0.2201 -0.0109
 2949PAPS   C3B33188   2.075  11.016   5.082  0.0017  0.2955 -0.3018
 2949PAPS   C4B33189   2.229  10.654   5.471 -0.1023 -0.0324 -0.0999
 2950PAPS   CNO33190  26.543  10.089   3.222  0.1521  0.0646  0.1232
 2950PAPS   PO433191  26.264  10.225   3.398 -0.2929  0.3281 -0.2563
 2950PAPS   GL133192  26.047  10.004   3.713 -0.2645 -0.2776 -0.3008
 2950PAPS   GL233193  26.204   9.789   3.770 -0.2765 -0.1901 -0.0144
 2950PAPS   C1A33194  25.966  10.141   4.004 -0.0702  0.2750 -0.2623
 2950PAPS   D2A33195  26.059  10.295   4.339 -0.1303  0.0527  0.0343
 2950PAPS   D3A33196  26.322  10.659   4.335  0.2552  0.0110  0.1620
 2950PAPS   D4A33197  26.273  10.782   4.791 -0.0917 -0.0857 -0.0526
 2950PAPS   C5A33198  26.638  10.632   4.980  0.1520  0.3130  0.0305
 2950PAPS   C1B33199  26.367   9.975   4.144 -0.0431  0.3381 -0.0470
 2950PAPS   C2B33200  26.583   9.756   4.628 -0.0190 -0.0269  0.1566
 2950PAPS   C3B33201  26.737   9.876   5.078 -0.2916 -0.1742 -0.4928
 2950PAPS   C4B33202  26.625   9.974   5.543  0.1179  0.0428 -0.0615
 2951PAPS   CNO33203  13.772  18.355   3.187  0.0621 -0.3455  0.0340
 2951PAPS   PO433204  14.020  18.121   3.102 -0.0459 -0.0193  0.0138
 2951PAPS   GL133205  14.209  18.054   3.481 -0.0687 -0.3404  0.4661
 2951PAPS   GL233206  13.962  18.235   3.594 -0.1316  0.4458 -0.1886
 2951PAPS   C1A33207  14.242  17.886   3.800 -0.1477 -0.5051  0.5603
 2951PAPS   D2A33208  14.379  17.906   4.158 -0.1280  0.1769  0.1083
 2951PAPS   D3A33209  14.557  17.771   4.565  0.3056  0.3945 -0.2707
 2951PAPS   D4A33210  14.651  17.740   5.018 -0.4608 -0.2942  0.2415
 2951PAPS   C5A33211  15.095  17.958   5.118 -0.0933  0.1056  0.0257
 2951PAPS   C1B33212  14.104  18.267   3.993  0.0449  0.1153  0.1804
 2951PAPS   C2B33213  14.155  18.302   4.457  0.1074  0.0047 -0.3658
 2951PAPS   C3B33214  14.261  18.110   4.902  0.0096 -0.2540 -0.0114
 2951PAPS   C4B33215  14.266  18.212   5.387  0.2574  0.1379 -0.3295
 2952PAPS   CNO33216  24.564  20.592   3.144  0.3918  0.0838 -0.0976
 2952PAPS   PO433217  24.883  20.731   3.307  0.0026  0.3236 -0.0573
 2952PAPS   GL133218  24.919  20.734   3.723  0.1457 -0.1606  0.0258
 2952PAPS   GL233219  25.176  20.572   3.681 -0.2526 -0.4364 -0.0682
 2952PAPS   C1A33220  24.676  20.672   4.022  0.1575  0.1635  0.1897
 2952PAPS   D2A33221  24.598  21.097   4.018 -0.0668  0.0020 -0.3401
 2952PAPS   D3A33222  25.046  21.205   3.982 -0.2432 -0.1548  0.1772
 2952PAPS   D4A33223  25.360  21.096   4.324  0.0317 -0.2935  0.0539
 2952PAPS   C5A33224  25.161  20.700   4.138  0.4846 -0.3457  0.0284
 2952PAPS   C1B33225  25.537  20.588   3.945 -0.0050 -0.1300  0.0306
 2952PAPS   C2B33226  25.610  20.584   4.430 -0.0224 -0.1525 -0.3547
 2952PAPS   C3B33227  25.560  20.424   4.879  0.3363  0.1939 -0.1647
 2952PAPS   C4B33228  25.755  20.199   5.228  0.0336 -0.0280 -0.0194
 2953PAPS   CNO33229   6.956  20.012   3.417 -0.4348 -0.0244 -0.0813
 2953PAPS   PO433230   6.602  20.042   3.558 -0.0132 -0.0634  0.0635
 2953PAPS   GL133231   6.572  20.016   3.956 -0.0248  0.1852 -0.1157
 2953PAPS   GL233232   6.733  20.246   4.031 -0.0326 -0.0640  0.0335
 2953PAPS   C1A33233   6.300  19.949   4.207  0.2010  0.0294  0.2065
 2953PAPS   D2A33234   6.206  19.943   4.577 -0.3588 -0.3209  0.0571
 2953PAPS   D3A33235   6.388  19.823   4.931  0.1176 -0.1049  0.1919
 2953PAPS   D4A33236   6.515  19.377   4.986 -0.2483 -0.0785 -0.2808
 2953PAPS   C5A33237   6.096  19.055   4.983 -0.0221  0.4180  0.2674
 2953PAPS   C1B33238   6.668  20.523   4.417  0.0775  0.3290 -0.2408
 2953PAPS   C2B33239   6.662  20.700   4.931 -0.2345  0.3596 -0.2280
 2953PAPS   C3B33240   6.591  20.778   5.394  0.1013 -0.0528 -0.1768
 2953PAPS   C4B33241   6.386  20.889   5.842 -0.2610  0.1521  0.0457
 2954PAPS   CNO33242   3.964  23.313   3.977  0.0305  0.0148 -0.1653
 2954PAPS   PO433243   3.690  23.055   3.933 -0.3008 -0.2187 -0.0549
 2954PAPS   GL133244   3.512  22.906   4.292 -0.0480 -0.0426 -0.0608
 2954PAPS   GL233245   3.759  22.706   4.364  0.3789  0.2446  0.2687
 2954PAPS   C1A33246   3.234  22.947   4.576 -0.0199 -0.0951  0.1344
 2954PAPS   D2A33247   3.045  23.247   4.759  0.0527 -0.0133 -0.0697
 2954PAPS   D3A33248   2.759  23.045   5.079 -0.1555 -0.1917  0.2864
 2954PAPS   D4A33249   2.756  22.633   5.302  0.0698 -0.0500  0.0349
 2954PAPS   C5A33250   3.081  22.247   5.151 -0.0837 -0.3599  0.0081
 2954PAPS   C1B33251   3.630  22.741   4.721 -0.0533  0.2233  0.3251
 2954PAPS   C2B33252   3.438  23.126   5.021 -0.1690  0.0400  0.0012
 2954PAPS   C3B33253   3.229  23.168   5.387  0.0860 -0.2974 -0.2715
 2954PAPS   C4B33254   2.870  23.041   5.672 -0.2277 -0.3285 -0.0431
 2955PAPS   CNO33255   1.848   6.022   3.713 -0.1794 -0.2382 -0.1457
 2955PAPS   PO433256   1.502   6.042   3.790  0.4109  0.4562  0.0216
 2955PAPS   GL133257   1.608   6.070   4.189 -0.2654 -0.2094  0.0146
 2955PAPS   GL233258   1.907   6.110   4.157 -0.1315  0.2869 -0.1198
 2955PAPS   C1A33259   1.459   6.148   4.457  0.1851  0.1327  0.1672
 2955PAPS   D2A33260   1.315   6.353   4.803 -0.1691  0.3217 -0.0271
 2955PAPS   D3A33261   1.259   6.671   5.149 -0.2035  0.1079 -0.0887
 2955PAPS   D4A33262   1.420   6.569   5.560  0.1281 -0.3814 -0.1119
 2955PAPS   C5A33263   1.661   6.549   5.965  0.0621  0.0216  0.0261
 2955PAPS   C1B33264   2.154   6.000   4.485 -0.2145  0.2888 -0.0115
 2955PAPS   C2B33265   2.591   5.835   4.760  0.1078 -0.1561  0.4102
 2955PAPS   C3B33266   2.660   5.533   5.144 -0.0805 -0.0807  0.0948
 2955PAPS   C4B33267   2.705   5.187   5.441  0.0368 -0.1070  0.0784
 2956PAPS   CNO33268   1.717   8.645   3.450 -0.0806  0.2402  0.2257
 2956PAPS   PO433269   1.970   8.377   3.428  0.2743  0.1424 -0.1406
 2956PAPS   GL133270   1.906   8.442   3.825 -0.1495 -0.1118 -0.1385
 2956PAPS   GL233271   2.128   8.321   3.867  0.1002  0.0932  0.0743
 2956PAPS   C1A33272   1.895   8.759   3.987 -0.0469 -0.1324 -0.3982
 2956PAPS   D2A33273   1.753   8.575   4.325  0.0661 -0.1874 -0.1927
 2956PAPS   D3A33274   1.573   8.429   4.780  0.1500  0.0868 -0.3091
 2956PAPS   D4A33275   1.606   8.116   5.158  0.0470 -0.1200  0.0891
 2956PAPS   C5A33276   1.735   8.250   5.612 -0.0986  0.3854 -0.1065
 2956PAPS   C1B33277   2.193   8.368   4.264 -0.0005  0.1681  0.2658
 2956PAPS   C2B33278   2.403   8.309   4.744  0.2711  0.1174  0.1415
 2956PAPS   C3B33279   2.556   8.229   5.148 -0.1940  0.3013 -0.2929
 2956PAPS   C4B33280   2.788   8.118   5.616  0.0780  0.1922 -0.0143
 2957PAPS   CNO33281  14.906   4.553   3.849 -0.2275  0.5087  0.1410
 2957PAPS   PO433282  15.172   4.496   4.082  0.2818 -0.0288  0.2059
 2957PAPS   GL133283  15.271   4.823   4.459  0.0658  0.3506  0.0442
 2957PAPS   GL233284  14.981   4.779   4.452  0.0983  0.2470  0.2298
 2957PAPS   C1A33285  15.194   4.799   4.788 -0.0100 -0.2971 -0.0194
 2957PAPS   D2A33286  14.859   4.641   4.910 -0.1472  0.0034 -0.3391
 2957PAPS   D3A33287  14.593   4.346   4.739 -0.1878 -0.0606  0.0478
 2957PAPS   D4A33288  15.059   4.337   4.610 -0.0085  0.1107 -0.3031
 2957PAPS   C5A33289  14.741   3.899   4.636 -0.2024  0.0793  0.0246
 2957PAPS   C1B33290  14.823   5.168   4.477  0.1402 -0.1557  0.2147
 2957PAPS   C2B33291  14.477   5.350   4.766  0.1889 -0.0310 -0.0314
 2957PAPS   C3B33292  14.110   5.167   4.958  0.0266 -0.1621  0.0319
 2957PAPS   C4B33293  13.939   4.961   5.347 -0.1987 -0.2556 -0.0711
 2958PAPS   CNO33294  17.526   2.676   3.240  0.0307 -0.2109 -0.0728
 2958PAPS   PO433295  17.782   2.705   3.516 -0.0028 -0.0529  0.1279
 2958PAPS   GL133296  17.653   2.900   3.913  0.0897  0.0858 -0.0926
 2958PAPS   GL233297  17.468   2.643   3.941  0.3476  0.0571  0.1808
 2958PAPS   C1A33298  17.896   2.924   4.178  0.1839  0.0588 -0.3153
 2958PAPS   D2A33299  18.257   3.007   4.286  0.2032 -0.0477  0.0323
 2958PAPS   D3A33300  18.765   3.044   4.348 -0.1828 -0.1849  0.2665
 2958PAPS   D4A33301  18.827   3.024   4.751 -0.3484 -0.0644 -0.0304
 2958PAPS   C5A33302  19.090   3.391   4.593  0.0030  0.1328  0.2140
 2958PAPS   C1B33303  17.637   2.564   4.341  0.3276 -0.0156  0.0728
 2958PAPS   C2B33304  17.682   2.368   4.758  0.4012  0.0347 -0.0447
 2958PAPS   C3B33305  17.929   2.117   5.156  0.4013 -0.3043  0.5457
 2958PAPS   C4B33306  18.131   1.825   5.409  0.1094  0.1370 -0.2471
 2959PAPS   CNO33307  10.462  12.020   3.604 -0.0412  0.1907  0.0598
 2959PAPS   PO433308  10.329  12.355   3.655  0.1304 -0.0218  0.2999
 2959PAPS   GL133309  10.341  12.563   3.991  0.4084  0.5624  0.0168
 2959PAPS   GL233310  10.572  12.717   4.012  0.2229 -0.0460 -0.0576
 2959PAPS   C1A33311  10.179  12.402   4.306  0.0538  0.0486 -0.3178
 2959PAPS   D2A33312   9.989  12.358   4.695 -0.3567 -0.1194  0.2357
 2959PAPS   D3A33313   9.916  12.841   4.795 -0.0367 -0.1404  0.1224
 2959PAPS   D4A33314   9.829  13.068   5.262  0.4020  0.0053  0.7454
 2959PAPS   C5A33315   9.775  13.513   5.099 -0.0755 -0.0550 -0.3888
 2959PAPS   C1B33316  10.664  12.776   4.410 -0.0224 -0.1498  0.0226
 2959PAPS   C2B33317  10.877  12.837   4.873  0.2011  0.0305 -0.0673
 2959PAPS   C3B33318  11.163  12.684   5.223 -0.1002 -0.3459  0.1714
 2959PAPS   C4B33319  11.350  12.398   5.531  0.3454 -0.0528  0.1716
 2960PAPS   CNO33320  15.256  26.146   4.157 -0.0495  0.0631 -0.1918
 2960PAPS   PO433321  14.901  26.031   4.084 -0.4140 -0.4015 -0.4014
 2960PAPS   GL133322  14.572  26.057   4.354  0.0329  0.2649 -0.2007
 2960PAPS   GL233323  14.687  25.696   4.432 -0.3944 -0.0187 -0.2045
 2960PAPS   C1A33324  14.735  26.126   4.635  0.0287  0.0826  0.0101
 2960PAPS   D2A33325  14.950  26.041   4.979 -0.1114  0.2626 -0.1053
 2960PAPS   D3A33326  15.319  25.827   4.909  0.0875  0.1740 -0.1367
 2960PAPS   D4A33327  15.671  25.921   5.206  0.0173 -0.1290 -0.1375
 2960PAPS   C5A33328  15.982  25.869   5.590 -0.1763  0.0578 -0.0500
 2960PAPS   C1B33329  14.671  25.706   4.885 -0.2115  0.0520  0.2844
 2960PAPS   C2B33330  14.821  25.735   5.413 -0.1488 -0.1455 -0.2768
 2960PAPS   C3B33331  14.863  25.895   5.870  0.1156  0.0466  0.1786
 2960PAPS   C4B33332  15.180  26.074   6.215  0.2104  0.3026  0.6558
 2961PAPS   CNO33333   9.806  12.670   3.035  0.0828 -0.0167 -0.4776
 2961PAPS   PO433334   9.568  12.540   3.292  0.3760 -0.3730  0.0184
 2961PAPS   GL133335   9.530  12.484   3.629  0.0043 -0.2001  0.1450
 2961PAPS   GL233336   9.589  12.642   3.836 -0.0267 -0.3984 -0.1158
 2961PAPS   C1A33337   9.562  12.152   3.789 -0.0882  0.0666 -0.1013
 2961PAPS   D2A33338   9.453  11.950   4.112  0.1701 -0.1804  0.2416
 2961PAPS   D3A33339   9.660  11.963   4.496  0.0341  0.1105 -0.1478
 2961PAPS   D4A33340   9.746  11.851   4.940 -0.0705 -0.2214  0.2927
 2961PAPS   C5A33341   9.977  11.839   5.337  0.0504 -0.4858 -0.1713
 2961PAPS   C1B33342   9.416  12.408   4.121  0.0354 -0.0671 -0.3352
 2961PAPS   C2B33343   9.521  12.474   4.642 -0.1611  0.0729  0.1884
 2961PAPS   C3B33344   9.678  12.448   5.105  0.0220  0.0650  0.1361
 2961PAPS   C4B33345   9.531  12.168   5.554  0.1358 -0.0847  0.0785
 2962PAPS   CNO33346  18.442   1.752   3.308 -0.0063  0.1070  0.0021
 2962PAPS   PO433347  18.444   1.783   3.665 -0.0924  0.0763 -0.0443
 2962PAPS   GL133348  18.688   1.739   4.040 -0.2187 -0.1452 -0.2266
 2962PAPS   GL233349  18.476   1.838   4.174 -0.1747 -0.0069 -0.1301
 2962PAPS   C1A33350  18.846   1.466   4.249  0.0793 -0.0263 -0.2063
 2962PAPS   D2A33351  18.919   1.476   4.732  0.0662  0.2758 -0.0457
 2962PAPS   D3A33352  19.126   1.374   5.095  0.0899 -0.0345  0.1402
 2962PAPS   D4A33353  19.539   1.441   5.286  0.0573 -0.0600 -0.0514
 2962PAPS   C5A33354  19.775   1.729   5.552  0.0410 -0.0094 -0.2856
 2962PAPS   C1B33355  18.576   1.783   4.663 -0.2522 -0.0140  0.2192
 2962PAPS   C2B33356  18.962   1.870   5.083  0.1564  0.1121 -0.0180
 2962PAPS   C3B33357  19.245   1.889   5.434 -0.2994 -0.3601 -0.0320
 2962PAPS   C4B33358  19.660   2.207   5.535  0.0542 -0.0263  0.0651
 2963PAPS   CNO33359   0.321  13.193   3.591  0.1672 -0.1451 -0.1628
 2963PAPS   PO433360   0.625  13.090   3.437  0.1237 -0.2560 -0.1011
 2963PAPS   GL133361   0.696  12.808   3.691 -0.2389 -0.0586 -0.0688
 2963PAPS   GL233362   0.685  12.593   3.668 -0.7352 -0.2328  0.0057
 2963PAPS   C1A33363   0.897  12.871   3.977 -0.0566  0.0822 -0.0364
 2963PAPS   D2A33364   1.102  12.799   4.322  0.0406 -0.0043 -0.0475
 2963PAPS   D3A33365   1.228  12.858   4.719  0.0854 -0.0011 -0.0500
 2963PAPS   D4A33366   1.449  12.937   5.098 -0.1264 -0.0100 -0.1219
 2963PAPS   C5A33367   1.408  12.857   5.559  0.0392 -0.1876 -0.2533
 2963PAPS   C1B33368   0.554  12.224   3.937 -0.1399 -0.1215  0.2122
 2963PAPS   C2B33369   0.529  11.998   4.436  0.3946  0.0861 -0.0186
 2963PAPS   C3B33370   0.539  12.007   4.884  0.0494  0.1153 -0.0410
 2963PAPS   C4B33371   0.510  11.850   5.416  0.1394 -0.1081  0.0726
 2964PAPS   CNO33372   2.300  26.334   3.781  0.1290 -0.1413  0.0188
 2964PAPS   PO433373   2.055  26.497   3.584 -0.2030 -0.2971  0.2071
 2964PAPS   GL133374   2.033  26.856   3.874 -0.2285  0.0886 -0.0674
 2964PAPS   GL233375   2.306  26.713   3.995  0.0637 -0.1235 -0.2775
 2964PAPS   C1A33376   1.850  26.781   4.162 -0.0135 -0.0036  0.1765
 2964PAPS   D2A33377   1.759  26.838   4.551  0.1368  0.0330 -0.2796
 2964PAPS   D3A33378   1.320  26.708   4.670  0.0821  0.2101  0.0477
 2964PAPS   D4A33379   0.892  26.780   4.658 -0.0321 -0.2211 -0.3351
 2964PAPS   C5A33380   0.437  26.883   4.470  0.0062  0.0125  0.2643
 2964PAPS   C1B33381   2.529  26.699   4.441 -0.3152  0.0014 -0.3800
 2964PAPS   C2B33382   2.600  26.430   4.856 -0.0620 -0.1248  0.1103
 2964PAPS   C3B33383   2.475  26.709   5.276 -0.0983 -0.2742 -0.1809
 2964PAPS   C4B33384   2.275  26.985   5.646 -0.2888  0.0218  0.1649
 2965PAPS   CNO33385  12.746   3.905   3.230 -0.1341 -0.1853  0.3375
 2965PAPS   PO433386  12.567   4.233   3.206  0.1005  0.4286  0.0156
 2965PAPS   GL133387  12.599   4.499   3.568  0.0008 -0.2375 -0.0658
 2965PAPS   GL233388  12.599   4.345   3.826 -0.0238  0.1902 -0.2186
 2965PAPS   C1A33389  12.296   4.647   3.703 -0.1942 -0.1129  0.1035
 2965PAPS   D2A33390  12.082   4.812   3.971 -0.1880  0.3585  0.0363
 2965PAPS   D3A33391  12.134   4.944   4.350 -0.2207  0.1219 -0.1964
 2965PAPS   D4A33392  12.175   5.030   4.802  0.1509  0.0589 -0.2274
 2965PAPS   C5A33393  11.807   5.306   5.068 -0.0200  0.1493 -0.1883
 2965PAPS   C1B33394  12.598   4.578   4.170  0.4595  0.1875 -0.1733
 2965PAPS   C2B33395  12.516   4.742   4.687 -0.4102 -0.3973 -0.1171
 2965PAPS   C3B33396  12.348   4.732   5.156  0.0386  0.3001  0.2293
 2965PAPS   C4B33397  12.335   4.307   5.450 -0.1995  0.3174 -0.0581
 2966PAPS   CNO33398  15.164   2.983   3.388 -0.2927  0.1599  0.2964
 2966PAPS   PO433399  15.216   2.879   3.713 -0.0476  0.0219  0.1026
 2966PAPS   GL133400  14.915   2.809   4.041  0.2224 -0.2122  0.0507
 2966PAPS   GL233401  14.828   2.546   4.120 -0.2052 -0.0150  0.1213
 2966PAPS   C1A33402  14.700   3.025   4.205 -0.1627 -0.0005  0.2273
 2966PAPS   D2A33403  14.844   3.249   4.549  0.2171 -0.1617  0.2859
 2966PAPS   D3A33404  15.297   3.326   4.707 -0.1350 -0.0168  0.0555
 2966PAPS   D4A33405  15.197   3.169   5.110 -0.0884 -0.1880  0.2013
 2966PAPS   C5A33406  15.421   3.158   5.565 -0.1902 -0.0254  0.0830
 2966PAPS   C1B33407  14.853   2.760   4.482 -0.2281  0.0012 -0.1332
 2966PAPS   C2B33408  15.046   2.765   4.948 -0.3259 -0.1746  0.0192
 2966PAPS   C3B33409  15.254   2.713   5.383 -0.0283 -0.2870 -0.3131
 2966PAPS   C4B33410  15.232   2.588   5.861  0.0525 -0.0294  0.0764
 2967PAPS   CNO33411  25.611  16.263   3.256 -0.0053 -0.3280  0.2363
 2967PAPS   PO433412  25.662  15.979   3.482 -0.0636  0.2622  0.0505
 2967PAPS   GL133413  25.846  16.002   3.864  0.3381 -0.1937 -0.0912
 2967PAPS   GL233414  25.622  16.136   3.989 -0.0107  0.0834 -0.3123
 2967PAPS   C1A33415  26.016  15.917   4.162  0.2251 -0.0543  0.0587
 2967PAPS   D2A33416  25.965  15.974   4.497  0.4674 -0.0997 -0.0142
 2967PAPS   D3A33417  25.864  15.599   4.729  0.3775 -0.3734 -0.1121
 2967PAPS   D4A33418  26.044  15.177   4.565  0.2206  0.2260  0.0005
 2967PAPS   C5A33419  26.191  14.695   4.616  0.2606 -0.0433 -0.1341
 2967PAPS   C1B33420  25.553  16.125   4.446 -0.2750 -0.2940 -0.2202
 2967PAPS   C2B33421  25.510  16.054   4.946 -0.0075 -0.0554 -0.0335
 2967PAPS   C3B33422  25.389  16.161   5.438 -0.0417 -0.1525  0.4926
 2967PAPS   C4B33423  25.097  16.091   5.855  0.1351  0.2933 -0.0788
 2968PAPS   CNO33424   3.118  10.421   3.247  0.5329 -0.1377 -0.2707
 2968PAPS   PO433425   2.970  10.389   3.565 -0.6028  0.1453 -0.0561
 2968PAPS   GL133426   2.699   9.996   3.758  0.1062  0.3067  0.0482
 2968PAPS   GL233427   3.012   9.940   3.799 -0.2924 -0.0281 -0.1756
 2968PAPS   C1A33428   2.360   9.971   3.905 -0.0800  0.2488  0.1687
 2968PAPS   D2A33429   1.966  10.069   3.979  0.2056  0.1216  0.0812
 2968PAPS   D3A33430   1.600   9.916   3.816  0.4657  0.2653 -0.0191
 2968PAPS   D4A33431   1.352  10.216   3.997 -0.0424  0.1990 -0.0448
 2968PAPS   C5A33432   1.238  10.126   4.421  0.2047 -0.1313  0.3167
 2968PAPS   C1B33433   3.272   9.601   3.983 -0.0512  0.1330 -0.0563
 2968PAPS   C2B33434   3.633   9.243   3.977  0.2165 -0.2852  0.0947
 2968PAPS   C3B33435   4.004   9.234   4.296 -0.0853  0.0201  0.0687
 2968PAPS   C4B33436   4.332   9.429   4.709  0.2107 -0.0235  0.2538
 2969PAPS   CNO33437   2.428  19.768   3.832 -0.2021  0.4210 -0.0826
 2969PAPS   PO433438   2.455  20.157   3.854 -0.3535  0.0728 -0.0903
 2969PAPS   GL133439   2.768  20.408   3.957  0.1237 -0.2114  0.0933
 2969PAPS   GL233440   2.495  20.548   3.918  0.0551 -0.2970  0.3051
 2969PAPS   C1A33441   2.860  20.639   4.233 -0.3576 -0.1115 -0.0232
 2969PAPS   D2A33442   2.903  20.975   4.499  0.5427 -0.0543  0.2173
 2969PAPS   D3A33443   2.834  20.709   4.829 -0.1892  0.0970  0.2350
 2969PAPS   D4A33444   2.836  20.468   5.222 -0.2625 -0.0572  0.2997
 2969PAPS   C5A33445   2.785  20.414   5.696 -0.0116  0.1714  0.0350
 2969PAPS   C1B33446   2.269  20.515   4.292  0.1335  0.2319 -0.0286
 2969PAPS   C2B33447   2.190  20.671   4.791  0.0115 -0.3076 -0.0366
 2969PAPS   C3B33448   2.223  20.817   5.213 -0.2081 -0.1243 -0.1250
 2969PAPS   C4B33449   2.439  20.765   5.670 -0.0758 -0.0658 -0.3350
 2970PAPS   CNO33450  16.286   1.937   3.304 -0.0067  0.1518 -0.3236
 2970PAPS   PO433451  16.147   1.760   3.624  0.2123  0.0737 -0.0397
 2970PAPS   GL133452  16.164   1.962   4.003  0.1495 -0.2524 -0.4180
 2970PAPS   GL233453  16.233   1.693   4.110 -0.2260 -0.2547  0.0205
 2970PAPS   C1A33454  16.174   1.989   4.385  0.2916 -0.1177 -0.2086
 2970PAPS   D2A33455  16.243   1.941   4.768 -0.4066 -0.0045  0.0837
 2970PAPS   D3A33456  16.257   2.017   5.251 -0.1240  0.0755 -0.2547
 2970PAPS   D4A33457  16.023   2.277   5.444 -0.2048  0.0208  0.0845
 2970PAPS   C5A33458  15.765   2.496   5.664  0.0451 -0.0692  0.2454
 2970PAPS   C1B33459  16.416   1.623   4.525 -0.0492 -0.0767 -0.0779
 2970PAPS   C2B33460  16.496   1.597   5.085 -0.0664 -0.1809 -0.0268
 2970PAPS   C3B33461  16.476   1.657   5.591 -0.2651 -0.0625  0.1912
 2970PAPS   C4B33462  16.603   1.726   6.019 -0.0617 -0.0279  0.1994
 2971PAPS   CNO33463   5.191  17.674   3.467 -0.2620 -0.0026 -0.2181
 2971PAPS   PO433464   5.038  17.325   3.444 -0.0055  0.0902  0.0373
 2971PAPS   GL133465   4.972  17.052   3.803 -0.1752  0.0419 -0.3585
 2971PAPS   GL233466   4.894  16.841   3.594  0.4588  0.2348  0.1228
 2971PAPS   C1A33467   4.878  17.047   4.167  0.0167 -0.2938  0.1694
 2971PAPS   D2A33468   4.767  17.378   4.404  0.1054 -0.2373 -0.1907
 2971PAPS   D3A33469   5.011  17.287   4.844 -0.0126 -0.4207  0.0365
 2971PAPS   D4A33470   4.987  16.927   5.089 -0.0373 -0.1916 -0.1365
 2971PAPS   C5A33471   4.573  16.738   4.977 -0.0102 -0.0558 -0.0559
 2971PAPS   C1B33472   4.679  16.732   3.976 -0.1601 -0.0650  0.1452
 2971PAPS   C2B33473   4.324  16.529   4.255  0.3031  0.1817 -0.1214
 2971PAPS   C3B33474   4.134  16.418   4.733  0.2702 -0.0948 -0.0940
 2971PAPS   C4B33475   4.272  16.394   5.204  0.1350  0.1196  0.1123
 2972PAPS   CNO33476  15.207  20.071   3.130 -0.0076  0.0165 -0.3333
 2972PAPS   PO433477  15.287  20.283   3.457 -0.0890 -0.0011  0.0582
 2972PAPS   GL133478  15.435  20.209   3.802 -0.5614 -0.0923 -0.3471
 2972PAPS   GL233479  15.315  20.433   3.911 -0.3324 -0.2246  0.3002
 2972PAPS   C1A33480  15.731  20.218   4.044 -0.0732  0.3708  0.0801
 2972PAPS   D2A33481  16.057  20.379   4.227  0.2201 -0.1885  0.1064
 2972PAPS   D3A33482  16.110  20.733   4.513 -0.1665 -0.0117  0.1919
 2972PAPS   D4A33483  16.088  20.998   4.929  0.0502 -0.1729 -0.3425
 2972PAPS   C5A33484  15.865  20.614   5.096 -0.2624  0.0084  0.1672
 2972PAPS   C1B33485  15.232  20.388   4.324  0.0119  0.2762  0.3326
 2972PAPS   C2B33486  15.135  20.494   4.776  0.4176 -0.1407  0.0529
 2972PAPS   C3B33487  15.077  20.573   5.228  0.0026 -0.0419 -0.2402
 2972PAPS   C4B33488  15.283  20.698   5.668  0.1991  0.0701  0.2467
 2973PAPS   CNO33489   9.830  20.283   3.043 -0.2249 -0.1820  0.1394
 2973PAPS   PO433490   9.709  20.012   3.260 -0.2127  0.1209 -0.1769
 2973PAPS   GL133491   9.418  20.199   3.564 -0.3606 -0.2676  0.2308
 2973PAPS   GL233492   9.560  20.460   3.426  0.2401 -0.2973 -0.0475
 2973PAPS   C1A33493   9.307  20.169   3.921  0.2637  0.2288  0.0711
 2973PAPS   D2A33494   9.530  20.091   4.267 -0.0314  0.3859  0.4439
 2973PAPS   D3A33495   9.846  20.420   4.498 -0.2252 -0.1899  0.0318
 2973PAPS   D4A33496  10.164  20.588   4.694  0.0964 -0.3007  0.0947
 2973PAPS   C5A33497  10.063  20.798   5.069 -0.1034  0.2327  0.0566
 2973PAPS   C1B33498   9.440  20.667   3.793  0.3349  0.0299  0.0144
 2973PAPS   C2B33499   9.566  20.727   4.264  0.2545 -0.1833 -0.2811
 2973PAPS   C3B33500   9.854  20.982   4.513  0.0689  0.0688 -0.2059
 2973PAPS   C4B33501  10.305  21.057   4.415  0.2457  0.2499  0.1714
 2974PAPS   CNO33502  18.859   4.304   3.196 -0.3310 -0.0628 -0.1582
 2974PAPS   PO433503  19.180   4.258   3.381  0.3107  0.0519  0.1724
 2974PAPS   GL133504  19.216   4.432   3.723 -0.1518  0.1139 -0.0383
 2974PAPS   GL233505  18.962   4.258   3.785  0.0344  0.0299  0.2664
 2974PAPS   C1A33506  19.372   4.470   4.102 -0.1818 -0.1096  0.0408
 2974PAPS   D2A33507  19.332   4.581   4.473 -0.0021  0.2724 -0.0518
 2974PAPS   D3A33508  19.729   4.701   4.688  0.2441  0.1875 -0.2374
 2974PAPS   D4A33509  19.925   4.950   4.916  0.1286  0.1568  0.1573
 2974PAPS   C5A33510  19.651   4.942   5.277 -0.1085  0.3760  0.1651
 2974PAPS   C1B33511  18.573   4.513   3.957 -0.2183 -0.1320 -0.2654
 2974PAPS   C2B33512  18.484   4.434   4.471  0.0630  0.0880  0.1567
 2974PAPS   C3B33513  18.313   4.564   4.914  0.1619  0.2364  0.1602
 2974PAPS   C4B33514  18.640   4.625   5.306  0.1807  0.0918  0.3549
 2975PAPS   CNO33515   0.726   4.574   3.778 -0.1527  0.2729  0.0608
 2975PAPS   PO433516   1.042   4.802   3.731  0.2878  0.0090 -0.2335
 2975PAPS   GL133517   1.056   5.029   4.108 -0.3572 -0.1041 -0.1436
 2975PAPS   GL233518   0.994   4.816   4.288 -0.2088 -0.0907  0.1736
 2975PAPS   C1A33519   0.910   5.300   4.283 -0.0080  0.0026  0.0503
 2975PAPS   D2A33520   0.907   5.147   4.642 -0.0274 -0.1387 -0.1299
 2975PAPS   D3A33521   0.798   4.778   4.864  0.0868 -0.1121  0.1960
 2975PAPS   D4A33522   0.878   4.632   5.295  0.1555  0.0416  0.0028
 2975PAPS   C5A33523   0.659   4.716   5.649  0.0106  0.0335 -0.1339
 2975PAPS   C1B33524   1.289   4.526   4.572 -0.0962 -0.0372 -0.1867
 2975PAPS   C2B33525   1.062   4.252   4.962  0.4741 -0.3259  0.1224
 2975PAPS   C3B33526   1.059   4.072   5.430 -0.0738 -0.1204 -0.1129
 2975PAPS   C4B33527   1.048   4.087   5.905  0.2957  0.0938 -0.1962
 2976PAPS   CNO33528   2.629   5.177   3.635 -0.5087  0.0614 -0.3219
 2976PAPS   PO433529   2.969   5.143   3.836  0.1076  0.0451 -0.0138
 2976PAPS   GL133530   3.191   5.415   4.089  0.1735  0.1998  0.0283
 2976PAPS   GL233531   3.256   5.098   4.110  0.1255 -0.1549 -0.0423
 2976PAPS   C1A33532   3.006   5.526   4.393 -0.1522  0.0317 -0.1152
 2976PAPS   D2A33533   2.655   5.691   4.301 -0.2253  0.1599 -0.1474
 2976PAPS   D3A33534   2.326   5.421   4.524  0.0927 -0.3048  0.2323
 2976PAPS   D4A33535   2.077   5.546   4.909  0.2745  0.3421 -0.3505
 2976PAPS   C5A33536   2.275   5.834   5.162  0.0250  0.2441 -0.0118
 2976PAPS   C1B33537   3.235   4.900   4.489 -0.1061  0.2204 -0.3059
 2976PAPS   C2B33538   3.226   4.438   4.790  0.1642 -0.4805  0.2096
 2976PAPS   C3B33539   3.004   4.093   4.895  0.1032 -0.0171 -0.1807
 2976PAPS   C4B33540   2.796   3.685   4.999  0.0116 -0.1464 -0.0470
 2977PAPS   CNO33541   2.324   5.901   3.617 -0.1761 -0.0326  0.2572
 2977PAPS   PO433542   2.350   5.949   3.964  0.1712  0.1480 -0.2712
 2977PAPS   GL133543   2.304   6.324   4.098 -0.1316  0.6636  0.1370
 2977PAPS   GL233544   2.562   6.348   4.207 -0.1370  0.3435 -0.2025
 2977PAPS   C1A33545   2.094   6.435   4.366  0.0290 -0.0826  0.1573
 2977PAPS   D2A33546   1.844   6.298   4.648  0.1102 -0.0255  0.0756
 2977PAPS   D3A33547   1.710   6.387   5.071  0.1748 -0.1472 -0.2247
 2977PAPS   D4A33548   2.028   6.198   5.323  0.4261 -0.1239 -0.3677
 2977PAPS   C5A33549   1.822   6.150   5.732  0.2181  0.0301  0.0007
 2977PAPS   C1B33550   2.877   6.401   4.570 -0.1068  0.0063  0.1437
 2977PAPS   C2B33551   2.969   6.445   5.069 -0.0391 -0.0778 -0.2916
 2977PAPS   C3B33552   2.908   6.378   5.554 -0.0130 -0.0606 -0.1461
 2977PAPS   C4B33553   3.224   6.483   5.898 -0.3167 -0.1095  0.0501
 2978PAPS   CNO33554  17.444  14.782   3.065 -0.0303  0.2381 -0.1123
 2978PAPS   PO433555  17.366  14.514   3.332 -0.1778  0.1984  0.1294
 2978PAPS   GL133556  17.559  14.421   3.722 -0.0891 -0.2361  0.0287
 2978PAPS   GL233557  17.562  14.178   3.700  0.0469 -0.1058 -0.0518
 2978PAPS   C1A33558  17.517  14.584   4.046 -0.2794 -0.1953  0.0289
 2978PAPS   D2A33559  17.708  14.586   4.376  0.1747  0.3029 -0.0884
 2978PAPS   D3A33560  17.665  14.279   4.698  0.1942  0.2405 -0.1523
 2978PAPS   D4A33561  17.426  14.258   5.124  0.0278 -0.2289  0.1662
 2978PAPS   C5A33562  17.411  13.891   5.441 -0.0953  0.1895  0.2769
 2978PAPS   C1B33563  17.561  14.168   4.174  0.4393  0.0260 -0.2805
 2978PAPS   C2B33564  17.100  14.024   4.442 -0.2711 -0.0397  0.0608
 2978PAPS   C3B33565  16.979  14.031   4.940 -0.1513 -0.2294 -0.1023
 2978PAPS   C4B33566  16.879  13.941   5.429 -0.2120 -0.0753 -0.1343
 2979PAPS   CNO33567  10.660   6.385   3.577 -0.0670  0.2077 -0.0273
 2979PAPS   PO433568  10.436   6.556   3.314  0.0118  0.2744  0.2097
 2979PAPS   GL133569  10.261   6.612   3.626  0.2907  0.1689  0.1960
 2979PAPS   GL233570  10.215   6.304   3.726  0.3264  0.0545 -0.2117
 2979PAPS   C1A33571   9.989   6.847   3.753 -0.1610  0.3752 -0.2435
 2979PAPS   D2A33572   9.784   6.538   3.952  0.2316  0.0215  0.1235
 2979PAPS   D3A33573   9.651   6.744   4.398 -0.2219  0.1579 -0.2013
 2979PAPS   D4A33574   9.929   6.404   4.462 -0.0610  0.4734 -0.1352
 2979PAPS   C5A33575   9.810   6.049   4.204  0.0693 -0.0570 -0.1716
 2979PAPS   C1B33576  10.294   6.138   4.215  0.2935 -0.0363  0.3994
 2979PAPS   C2B33577  10.120   5.906   4.611  0.0947  0.1249  0.0616
 2979PAPS   C3B33578  10.107   5.801   5.093 -0.0987 -0.0936 -0.1009
 2979PAPS   C4B33579  10.141   5.650   5.520 -0.0964  0.1853  0.0965
 2980PAPS   CNO33580   9.281   3.808   2.765  0.0354 -0.2144  0.1235
 2980PAPS   PO433581   9.395   3.598   3.066  0.2218  0.0253 -0.0018
 2980PAPS   GL133582   9.715   3.608   3.455 -0.0354 -0.0457  0.1629
 2980PAPS   GL233583   9.598   3.340   3.580  0.0472  0.2638 -0.1627
 2980PAPS   C1A33584   9.689   3.865   3.689  0.1455  0.1069 -0.0870
 2980PAPS   D2A33585   9.611   4.187   3.918 -0.0298 -0.2611  0.2108
 2980PAPS   D3A33586   9.956   4.520   4.019  0.2715  0.2181 -0.1818
 2980PAPS   D4A33587  10.244   4.504   4.351 -0.1286 -0.2012  0.0159
 2980PAPS   C5A33588  10.606   4.267   4.549  0.0962  0.0968 -0.1476
 2980PAPS   C1B33589   9.543   3.473   4.023 -0.0487 -0.2415  0.1973
 2980PAPS   C2B33590   9.445   3.118   4.401  0.0519 -0.0963  0.1182
 2980PAPS   C3B33591   9.373   2.853   4.787  0.0751  0.1578 -0.0293
 2980PAPS   C4B33592   9.004   2.556   4.954 -0.2197 -0.3596  0.1276
 2981PAPS   CNO33593  16.934  19.701   3.284 -0.0107 -0.1430 -0.0529
 2981PAPS   PO433594  17.096  19.402   3.394  0.0249 -0.0471 -0.1958
 2981PAPS   GL133595  17.084  19.291   3.771  0.2153  0.1206 -0.0422
 2981PAPS   GL233596  17.226  19.063   3.821 -0.2378  0.0078  0.3234
 2981PAPS   C1A33597  17.210  19.486   4.045 -0.3255  0.1845  0.1945
 2981PAPS   D2A33598  17.467  19.596   4.387  0.0817 -0.0352 -0.0753
 2981PAPS   D3A33599  17.644  19.996   4.108  0.3170 -0.0363 -0.0643
 2981PAPS   D4A33600  17.593  20.436   4.129  0.0849  0.1032 -0.1578
 2981PAPS   C5A33601  17.966  20.666   4.367  0.2502 -0.3759  0.0816
 2981PAPS   C1B33602  17.052  19.093   4.210  0.2736 -0.4280  0.3946
 2981PAPS   C2B33603  16.780  18.985   4.633 -0.2434  0.1200 -0.0513
 2981PAPS   C3B33604  16.595  18.839   5.041  0.0484  0.3367  0.0103
 2981PAPS   C4B33605  16.355  18.985   5.455 -0.1794 -0.2520  0.1119
 2982PAPS   CNO33606  20.144   7.249   2.868  0.1036 -0.0537 -0.0716
 2982PAPS   PO433607  20.087   7.342   3.226 -0.1381  0.2159 -0.1683
 2982PAPS   GL133608  19.773   7.262   3.392 -0.1443  0.2725  0.1070
 2982PAPS   GL233609  19.840   7.183   3.664  0.2810 -0.0010  0.0077
 2982PAPS   C1A33610  19.554   7.450   3.562 -0.0918 -0.1991  0.0546
 2982PAPS   D2A33611  19.260   7.692   3.758 -0.3351  0.2850  0.0941
 2982PAPS   D3A33612  19.275   7.758   4.176 -0.1951 -0.1575 -0.1031
 2982PAPS   D4A33613  19.367   7.763   4.618 -0.2451  0.2937 -0.1582
 2982PAPS   C5A33614  19.145   7.389   4.843  0.2095  0.0996 -0.1785
 2982PAPS   C1B33615  19.505   7.130   3.903  0.4486 -0.0280 -0.5054
 2982PAPS   C2B33616  19.458   7.248   4.411 -0.1109 -0.2017  0.0654
 2982PAPS   C3B33617  19.593   7.125   4.884  0.2059 -0.4774  0.1454
 2982PAPS   C4B33618  19.563   7.491   5.186  0.0352  0.0821 -0.2620
 2983PAPS   CNO33619  19.165  26.863   3.646 -0.1777 -0.1668 -0.3040
 2983PAPS   PO433620  19.129  26.488   3.542 -0.2126  0.3460  0.0752
 2983PAPS   GL133621  18.947  26.309   3.930  0.0452 -0.0798 -0.2050
 2983PAPS   GL233622  19.029  26.608   4.031 -0.0389  0.0681 -0.1911
 2983PAPS   C1A33623  18.955  25.990   4.104 -0.0244  0.1439  0.3546
 2983PAPS   D2A33624  19.229  25.977   4.390 -0.0555 -0.2050 -0.4224
 2983PAPS   D3A33625  19.465  26.146   4.731 -0.0438 -0.2097  0.0341
 2983PAPS   D4A33626  19.372  25.868   5.125 -0.1361 -0.2306 -0.1591
 2983PAPS   C5A33627  19.773  25.758   5.070 -0.0683 -0.1720  0.1747
 2983PAPS   C1B33628  19.281  26.460   4.381 -0.0689  0.0193 -0.2233
 2983PAPS   C2B33629  19.552  26.666   4.810  0.0551  0.0781 -0.0983
 2983PAPS   C3B33630  19.793  26.859   5.193  0.0973  0.0103  0.3911
 2983PAPS   C4B33631  19.966  27.036   5.591 -0.2310 -0.3230  0.3828
 2984PAPS   CNO33632  18.751   7.228   2.921 -0.0478  0.1199  0.2806
 2984PAPS   PO433633  18.514   7.370   3.206 -0.1604 -0.1128  0.0602
 2984PAPS   GL133634  18.791   7.434   3.505  0.0148 -0.0465 -0.1535
 2984PAPS   GL233635  18.936   7.213   3.428  0.1408 -0.3292  0.1432
 2984PAPS   C1A33636  18.617   7.436   3.858  0.3052  0.0670  0.3259
 2984PAPS   D2A33637  18.275   7.552   3.631  0.1219  0.1268  0.5024
 2984PAPS   D3A33638  17.932   7.815   3.488  0.1723 -0.0985 -0.1058
 2984PAPS   D4A33639  17.484   7.835   3.623  0.5311 -0.0080 -0.0703
 2984PAPS   C5A33640  17.182   8.209   3.536  0.0255  0.1031 -0.0512
 2984PAPS   C1B33641  19.039   6.999   3.829 -0.4690 -0.1776 -0.1732
 2984PAPS   C2B33642  18.950   7.371   4.207 -0.0864 -0.3910 -0.0637
 2984PAPS   C3B33643  18.676   7.620   4.590  0.3491  0.2076 -0.1829
 2984PAPS   C4B33644  18.481   7.857   5.003 -0.2670 -0.0853 -0.0655
 2985PAPS   CNO33645  19.836  20.774   3.974 -0.0658  0.1524  0.0647
 2985PAPS   PO433646  19.455  20.863   3.886 -0.1743 -0.0959  0.0431
 2985PAPS   GL133647  19.278  21.040   4.249  0.0220  0.0385  0.4119
 2985PAPS   GL233648  19.477  21.240   4.256  0.0385  0.1232 -0.0655
 2985PAPS   C1A33649  19.284  20.871   4.631 -0.2979 -0.1503  0.2214
 2985PAPS   D2A33650  19.302  20.655   4.975  0.0217  0.2676  0.0360
 2985PAPS   D3A33651  19.516  20.665   5.343 -0.0866  0.1681 -0.3000
 2985PAPS   D4A33652  19.739  20.875   5.668  0.2181 -0.0170  0.0153
 2985PAPS   C5A33653  19.580  20.525   6.025  0.0085  0.2221 -0.1940
 2985PAPS   C1B33654  19.457  21.303   4.733  0.2172  0.0717 -0.1116
 2985PAPS   C2B33655  19.461  21.164   5.282  0.0239  0.1603  0.2288
 2985PAPS   C3B33656  19.309  21.042   5.731 -0.1856 -0.0390 -0.1335
 2985PAPS   C4B33657  19.171  20.774   6.130 -0.1718  0.2074  0.0957
 2986SAP6    C133658  13.346  13.228   3.022 -0.1111  0.2939 -0.0481
 2986SAP6    C233659  13.350  13.014   2.846  0.0745  0.1465  0.1290
 2986SAP6    C333660  13.441  13.329   2.771 -0.1601  0.1587 -0.1223
 2986SAP6    C433661  13.379  13.190   2.880 -0.0656  0.1997 -0.0138
 2986SAP6   PO433662  13.448  13.125   3.371 -0.2238  0.0689  0.0788
 2986SAP6    P433663  13.513  13.286   2.467  0.1920  0.0996 -0.0634
 2986SAP6    P533664  13.299  12.842   2.616 -0.0078  0.2313 -0.0896
 2986SAP6   GL133665  13.289  13.140   3.682  0.0324 -0.2475 -0.1990
 2986SAP6   GL233666  12.987  13.312   3.613  0.1923  0.1824 -0.3676
 2986SAP6   C1A33667  13.429  13.165   4.029  0.2253  0.3787  0.1997
 2986SAP6   D2A33668  13.199  13.150   4.327 -0.0463  0.2389 -0.1966
 2986SAP6   D3A33669  13.001  13.248   4.768  0.1211 -0.0521 -0.2338
 2986SAP6   D4A33670  13.089  12.959   5.071 -0.0318  0.3666 -0.0603
 2986SAP6   C5A33671  13.535  12.935   5.241  0.1334 -0.0062  0.4607
 2986SAP6   C1B33672  12.835  13.222   3.955  0.2385 -0.0834  0.0325
 2986SAP6   C2B33673  12.647  13.131   4.450  0.3332 -0.0172  0.6329
 2986SAP6   C3B33674  12.242  13.106   4.643  0.2211  0.2248  0.0357
 2986SAP6   C4B33675  11.739  13.177   4.719 -0.2108  0.2250  0.1074
 2987SAP6    C133676   1.821   3.573   3.305 -0.2130 -0.0024 -0.2317
 2987SAP6    C233677   2.006   3.691   3.136  0.0672  0.1160  0.1430
 2987SAP6    C333678   1.742   3.508   3.038  0.1860  0.2259 -0.4146
 2987SAP6    C433679   1.856   3.591   3.160  0.0134  0.1132 -0.1678
 2987SAP6   PO433680   1.647   3.761   3.501  0.1212  0.0481 -0.0223
 2987SAP6    P433681   1.748   3.475   2.743  0.0351  0.0619  0.0563
 2987SAP6    P533682   2.198   3.536   2.927  0.3918 -0.0016 -0.0611
 2987SAP6   GL133683   1.898   3.771   3.705  0.2498 -0.0193  0.1743
 2987SAP6   GL233684   1.707   3.490   3.809 -0.2927 -0.0823  0.1767
 2987SAP6   C1A33685   2.021   3.919   4.064 -0.1020  0.0292 -0.2876
 2987SAP6   D2A33686   2.105   3.860   4.509  0.1676  0.0259 -0.1239
 2987SAP6   D3A33687   1.841   3.758   4.782 -0.1487  0.3114 -0.1986
 2987SAP6   D4A33688   1.982   3.912   5.223 -0.0123  0.0629  0.1801
 2987SAP6   C5A33689   1.859   3.479   5.507 -0.1030  0.0020  0.1784
 2987SAP6   C1B33690   1.996   3.307   4.017  0.0348 -0.2601  0.1517
 2987SAP6   C2B33691   2.071   3.270   4.546 -0.0176  0.1705 -0.2311
 2987SAP6   C3B33692   1.916   3.318   5.041 -0.0298  0.0222 -0.2144
 2987SAP6   C4B33693   1.953   2.887   5.359  0.3181 -0.0353 -0.1153
 2988SAP6    C133694  18.518  23.384   3.106  0.1391  0.4003 -0.0051
 2988SAP6    C233695  18.666  23.348   2.874  0.0545 -0.0952  0.0079
 2988SAP6    C333696  18.407  23.559   2.908 -0.2331 -0.3459 -0.5062
 2988SAP6    C433697  18.530  23.430   2.963 -0.0133 -0.0136 -0.1678
 2988SAP6   PO433698  18.727  23.410   3.338  0.0957  0.0165  0.1172
 2988SAP6    P433699  18.500  23.766   2.691 -0.1537  0.4307 -0.3598
 2988SAP6    P533700  18.589  23.301   2.567  0.1884 -0.0444 -0.2992
 2988SAP6   GL133701  18.672  23.521   3.623 -0.4426 -0.0569  0.3143
 2988SAP6   GL233702  18.773  23.768   3.624 -0.3137 -0.0661  0.0378
 2988SAP6   C1A33703  18.484  23.577   3.909  0.0678  0.3235  0.1175
 2988SAP6   D2A33704  18.224  23.800   4.200 -0.0228  0.2981  0.3045
 2988SAP6   D3A33705  18.142  23.971   4.579 -0.3510 -0.2246 -0.0472
 2988SAP6   D4A33706  18.139  23.993   5.041 -0.1001 -0.0468  0.3034
 2988SAP6   C5A33707  17.917  24.177   5.397  0.3230 -0.2999  0.1479
 2988SAP6   C1B33708  18.824  23.889   4.065  0.0603  0.1158 -0.0887
 2988SAP6   C2B33709  18.814  24.024   4.610 -0.1247  0.3423  0.4384
 2988SAP6   C3B33710  19.019  24.015   5.034  0.0442  0.0208 -0.2889
 2988SAP6   C4B33711  18.942  23.727   5.442  0.3652 -0.2769 -0.0037
 2989SAP6    C133712  27.152   3.967   3.335  0.0523  0.3833 -0.0150
 2989SAP6    C233713  27.366   3.917   3.166  0.0883  0.0488  0.1230
 2989SAP6    C333714  27.044   3.851   3.096  0.0797  0.1178  0.0979
 2989SAP6    C433715  27.188   3.911   3.199  0.0734  0.1833  0.0687
 2989SAP6   PO433716  27.256   4.263   3.465 -0.2815 -0.0265 -0.1838
 2989SAP6    P433717  27.068   3.703   2.792  0.0497 -0.2280 -0.0512
 2989SAP6    P533718  27.560   3.617   3.083 -0.2099 -0.3619  0.3516
 2989SAP6   GL133719  27.431   4.079   3.652 -0.1377  0.2022  0.2372
 2989SAP6   GL233720  27.533   3.873   3.624  0.5201  0.0333 -0.5452
 2989SAP6   C1A33721  27.323   3.996   4.029 -0.0346  0.3106 -0.2994
 2989SAP6   D2A33722  27.412   4.038   4.412  0.1741  0.3360  0.1637
 2989SAP6   D3A33723  27.759   4.108   4.550  0.1042  0.2118 -0.1281
 2989SAP6   D4A33724  28.119   4.377   4.699  0.1266 -0.0634 -0.0569
 2989SAP6   C5A33725  28.234   4.177   5.135 -0.1057 -0.1286 -0.2280
 2989SAP6   C1B33726  27.357   3.555   3.882  0.1150  0.1601  0.0568
 2989SAP6   C2B33727  27.262   3.255   4.242  0.0236  0.3941  0.0585
 2989SAP6   C3B33728  26.989   3.146   4.679 -0.2354  0.0341  0.0111
 2989SAP6   C4B33729  26.981   3.073   5.176  0.1995  0.0507  0.3378
 2990SAP6    C133730  12.360  20.761   2.990  0.2923 -0.2628  0.1663
 2990SAP6    C233731  12.452  20.510   2.919  0.2259 -0.2324 -0.0356
 2990SAP6    C333732  12.450  20.780   2.718  0.1786 -0.1022  0.1375
 2990SAP6    C433733  12.421  20.684   2.876  0.2322 -0.1992  0.0894
 2990SAP6   PO433734  12.525  20.785   3.246  0.0567 -0.1429  0.0217
 2990SAP6    P433735  12.576  20.584   2.473 -0.2045  0.0505  0.4093
 2990SAP6    P533736  12.388  20.279   2.711  0.1479  0.0788  0.1206
 2990SAP6   GL133737  12.680  20.574   3.495 -0.0045 -0.0491  0.1685
 2990SAP6   GL233738  12.384  20.475   3.602 -0.0620  0.2182 -0.0320
 2990SAP6   C1A33739  12.761  20.695   3.867  0.0549  0.1058  0.0525
 2990SAP6   D2A33740  12.558  20.828   4.144  0.0175  0.1542  0.0706
 2990SAP6   D3A33741  12.389  20.744   4.565  0.2258  0.2031  0.2066
 2990SAP6   D4A33742  12.625  21.130   4.604  0.1404  0.0210  0.0427
 2990SAP6   C5A33743  12.757  20.772   4.884 -0.2751  0.2443 -0.0589
 2990SAP6   C1B33744  12.329  20.350   3.975  0.1170 -0.2415 -0.2177
 2990SAP6   C2B33745  12.510  20.295   4.493 -0.0999  0.0612 -0.0937
 2990SAP6   C3B33746  12.476  20.339   4.953  0.1187  0.2668  0.2484
 2990SAP6   C4B33747  12.637  20.115   5.399  0.1053  0.0289  0.0935
 2991SAP6    C133748   4.008  17.082   3.001  0.0066 -0.0598 -0.0517
 2991SAP6    C233749   4.174  17.276   2.893 -0.1727  0.0926 -0.0580
 2991SAP6    C333750   3.844  17.251   2.838 -0.1681 -0.1612  0.0171
 2991SAP6    C433751   4.009  17.203   2.911 -0.1114 -0.0427 -0.0309
 2991SAP6   PO433752   4.108  17.119   3.327  0.1450 -0.0646  0.3664
 2991SAP6    P433753   3.816  17.507   2.708  0.0302 -0.0018  0.0708
 2991SAP6    P533754   4.212  17.302   2.569  0.0023 -0.2474  0.3322
 2991SAP6   GL133755   4.080  16.918   3.631  0.3999  0.0563  0.0724
 2991SAP6   GL233756   3.794  17.034   3.541 -0.1413 -0.1581  0.5862
 2991SAP6   C1A33757   4.243  16.886   4.005  0.2090  0.1297 -0.1486
 2991SAP6   D2A33758   4.476  17.031   4.265  0.2107 -0.2131 -0.1913
 2991SAP6   D3A33759   4.322  17.143   4.643 -0.1710  0.0024 -0.3385
 2991SAP6   D4A33760   4.493  17.428   4.916  0.0388 -0.2873 -0.1781
 2991SAP6   C5A33761   4.845  17.743   4.765  0.0273 -0.4838  0.1211
 2991SAP6   C1B33762   3.619  17.170   3.866 -0.2407 -0.1585 -0.1396
 2991SAP6   C2B33763   3.445  17.105   4.373 -0.1670  0.1861 -0.1410
 2991SAP6   C3B33764   3.549  17.024   4.831  0.1043 -0.0322  0.1640
 2991SAP6   C4B33765   3.773  17.012   5.345  0.0963 -0.0981  0.0540
 2992SAP6    C133766  21.075   4.469   3.199 -0.3500 -0.1502  0.0560
 2992SAP6    C233767  20.829   4.524   3.082 -0.1837  0.0247 -0.2243
 2992SAP6    C333768  20.955   4.216   3.136 -0.3866 -0.0626 -0.2415
 2992SAP6    C433769  20.953   4.403   3.139 -0.3067 -0.0627 -0.1366
 2992SAP6   PO433770  21.120   4.682   3.450  0.0472 -0.1428  0.0084
 2992SAP6    P433771  20.804   4.050   2.955 -0.1838  0.3389  0.2691
 2992SAP6    P533772  20.614   4.420   2.836  0.2845 -0.0272  0.0790
 2992SAP6   GL133773  21.188   4.554   3.843  0.1519 -0.1455  0.1772
 2992SAP6   GL233774  21.036   4.722   3.950  0.0306 -0.3805  0.0486
 2992SAP6   C1A33775  21.563   4.600   3.950 -0.0216  0.1172 -0.2947
 2992SAP6   D2A33776  21.800   4.657   4.222  0.1399  0.1332 -0.0458
 2992SAP6   D3A33777  21.815   4.686   4.684  0.1637  0.1608  0.3098
 2992SAP6   D4A33778  21.425   4.838   4.780 -0.0143 -0.0444 -0.1743
 2992SAP6   C5A33779  21.161   4.880   5.153 -0.0957  0.0868 -0.0101
 2992SAP6   C1B33780  20.843   4.575   4.321  0.0775 -0.1536  0.1452
 2992SAP6   C2B33781  20.840   4.546   4.871 -0.0846  0.0481  0.0486
 2992SAP6   C3B33782  21.118   4.415   5.288 -0.0594  0.1140 -0.2135
 2992SAP6   C4B33783  21.467   4.419   5.662 -0.1668 -0.2276  0.0541
 2993SAP6    C133784  16.690  13.082   2.715  0.0661 -0.0842  0.0011
 2993SAP6    C233785  16.765  13.307   2.572  0.4199 -0.1468  0.0779
 2993SAP6    C333786  16.642  13.024   2.438  0.0554  0.0534 -0.0265
 2993SAP6    C433787  16.699  13.138   2.575  0.1804 -0.0592  0.0175
 2993SAP6   PO433788  16.615  13.192   3.019  0.1566  0.0754 -0.1216
 2993SAP6    P433789  16.656  13.025   2.108  0.3385 -0.2475 -0.3000
 2993SAP6    P533790  16.958  13.340   2.410 -0.0581  0.2895  0.0748
 2993SAP6   GL133791  16.679  13.379   3.301 -0.0609 -0.3377  0.4902
 2993SAP6   GL233792  16.941  13.470   3.395  0.1671  0.0712 -0.1104
 2993SAP6   C1A33793  16.545  13.699   3.483 -0.1478 -0.0976  0.3680
 2993SAP6   D2A33794  16.167  13.867   3.589  0.2888 -0.3302 -0.1963
 2993SAP6   D3A33795  15.884  13.944   4.007  0.5458 -0.0222  0.1832
 2993SAP6   D4A33796  15.501  14.133   4.090 -0.2628  0.2883 -0.0856
 2993SAP6   C5A33797  15.303  14.067   4.531 -0.1236  0.1503 -0.3091
 2993SAP6   C1B33798  16.839  13.537   3.807  0.1183  0.0019 -0.2820
 2993SAP6   C2B33799  16.783  13.637   4.308  0.0043 -0.1111  0.0751
 2993SAP6   C3B33800  16.827  13.564   4.775  0.0973 -0.3656  0.0565
 2993SAP6   C4B33801  16.513  13.715   5.130  0.0653  0.2348 -0.0422
 2994SAP6    C133802  15.010  24.728   3.456 -0.2441 -0.0408 -0.0464
 2994SAP6    C233803  14.948  24.990   3.393 -0.1002 -0.0197 -0.1034
 2994SAP6    C333804  14.907  24.727   3.189  0.0757  0.0060 -0.1739
 2994SAP6    C433805  14.955  24.815   3.346 -0.0896 -0.0182 -0.1079
 2994SAP6   PO433806  14.960  24.693   3.784 -0.0542  0.1737 -0.1157
 2994SAP6    P433807  14.736  24.871   2.884 -0.0009  0.0332 -0.0041
 2994SAP6    P533808  15.194  25.137   3.224  0.0014 -0.0853 -0.3009
 2994SAP6   GL133809  14.752  24.760   4.108 -0.0712 -0.1226 -0.2902
 2994SAP6   GL233810  14.462  24.619   4.024  0.3944 -0.0163  0.0698
 2994SAP6   C1A33811  14.682  24.880   4.506 -0.1930 -0.0759  0.2765
 2994SAP6   D2A33812  14.608  25.022   4.881 -0.1568  0.1817 -0.0594
 2994SAP6   D3A33813  14.968  25.008   5.178  0.0066  0.1280 -0.0874
 2994SAP6   D4A33814  14.691  25.155   5.487 -0.1619 -0.1271  0.1297
 2994SAP6   C5A33815  14.587  24.844   5.741  0.1292 -0.1711 -0.0412
 2994SAP6   C1B33816  14.344  24.584   4.463  0.0566  0.0402  0.1487
 2994SAP6   C2B33817  14.313  24.597   5.010  0.3700  0.0719 -0.0474
 2994SAP6   C3B33818  14.154  24.225   5.344  0.1082  0.1383  0.1889
 2994SAP6   C4B33819  13.980  23.783   5.577  0.2486 -0.0519 -0.2211
 2995SAP6    C133820  26.078  24.986   3.099  0.0593  0.0402  0.2247
 2995SAP6    C233821  26.130  24.764   2.941 -0.1093  0.1226  0.0500
 2995SAP6    C333822  26.220  25.079   2.868 -0.1092  0.1493  0.1636
 2995SAP6    C433823  26.143  24.943   2.969 -0.0530  0.1040  0.1461
 2995SAP6   PO433824  26.159  24.831   3.387  0.1700 -0.0764 -0.0336
 2995SAP6    P433825  26.414  25.141   2.675  0.1767  0.0223 -0.1390
 2995SAP6    P533826  26.177  24.630   2.616  0.1332 -0.0748 -0.0408
 2995SAP6   GL133827  26.039  25.040   3.667 -0.0030  0.3181 -0.0258
 2995SAP6   GL233828  26.237  25.217   3.686  0.1252 -0.3393  0.1254
 2995SAP6   C1A33829  25.720  25.170   3.814  0.1749 -0.3053 -0.3523
 2995SAP6   D2A33830  25.443  25.036   4.062  0.0762  0.2205  0.1960
 2995SAP6   D3A33831  25.586  24.595   4.307  0.2123 -0.1953  0.2856
 2995SAP6   D4A33832  25.826  24.397   4.663 -0.1673  0.5163 -0.0206
 2995SAP6   C5A33833  25.716  24.401   5.093  0.3848  0.1100  0.1015
 2995SAP6   C1B33834  26.007  25.414   4.048  0.1947 -0.4306 -0.0081
 2995SAP6   C2B33835  26.173  25.589   4.498  0.0853  0.0939 -0.3815
 2995SAP6   C3B33836  26.322  25.780   4.908  0.1039 -0.2285  0.1577
 2995SAP6   C4B33837  26.252  26.221   5.116 -0.1393 -0.2438 -0.2370
 2996SAP6    C133838   0.127  21.269   3.228  0.2297  0.2549 -0.1793
 2996SAP6    C233839   0.071  21.534   3.169  0.1398  0.1753 -0.4732
 2996SAP6    C333840   0.154  21.299   2.944  0.0675 -0.0837 -0.2360
 2996SAP6    C433841   0.118  21.367   3.114  0.1457  0.1155 -0.2962
 2996SAP6   PO433842  -0.004  21.217   3.507 -0.2309  0.1760  0.0665
 2996SAP6    P433843   0.235  21.520   2.733  0.0751  0.2311  0.1315
 2996SAP6    P533844   0.277  21.739   3.069 -0.3060 -0.0400  0.0186
 2996SAP6   GL133845  -0.097  21.441   3.824  0.0028  0.1084 -0.1588
 2996SAP6   GL233846   0.175  21.352   3.914 -0.1376 -0.0274 -0.1575
 2996SAP6   C1A33847  -0.249  21.678   4.073  0.1180 -0.1636  0.1231
 2996SAP6   D2A33848  -0.248  21.950   4.386 -0.1545  0.4532 -0.3700
 2996SAP6   D3A33849  -0.567  21.809   4.696  0.0498 -0.1744  0.1961
 2996SAP6   D4A33850  -0.528  21.421   4.945 -0.2116  0.3607  0.0084
 2996SAP6   C5A33851  -0.936  21.132   4.811 -0.2540 -0.1937 -0.2316
 2996SAP6   C1B33852   0.325  21.248   4.307  0.1227  0.0372 -0.3156
 2996SAP6   C2B33853   0.414  21.256   4.793 -0.1129  0.1085 -0.4306
 2996SAP6   C3B33854   0.388  20.993   5.166 -0.2226 -0.0799  0.2919
 2996SAP6   C4B33855   0.385  20.640   5.421 -0.1101 -0.0325 -0.1548
 2997SAP6    C133856  27.478   5.233   3.379  0.0859  0.1014 -0.1252
 2997SAP6    C233857  27.364   5.035   3.223  0.1018  0.1093 -0.1468
 2997SAP6    C333858  27.599   5.251   3.119  0.2190  0.0196 -0.0698
 2997SAP6    C433859  27.480   5.173   3.240  0.1356  0.0768 -0.1139
 2997SAP6   PO433860  27.509   5.053   3.706 -0.2345 -0.0912 -0.3899
 2997SAP6    P433861  27.516   5.306   2.787 -0.3322 -0.1549  0.2985
 2997SAP6    P533862  27.168   5.142   3.005 -0.0047  0.0494 -0.0810
 2997SAP6   GL133863  27.481   5.194   4.000 -0.0388  0.2104  0.2443
 2997SAP6   GL233864  27.196   5.338   3.998 -0.1429 -0.0988  0.1167
 2997SAP6   C1A33865  27.646   5.096   4.270  0.0726 -0.5446  0.0252
 2997SAP6   D2A33866  27.640   5.241   4.646 -0.0529  0.2475  0.0029
 2997SAP6   D3A33867  27.242   5.413   4.854  0.1032  0.0097  0.3282
 2997SAP6   D4A33868  26.806   5.510   4.887  0.0764 -0.0625  0.2000
 2997SAP6   C5A33869  26.638   5.510   4.438  0.2051 -0.1405 -0.0341
 2997SAP6   C1B33870  27.175   5.202   4.371  0.5321 -0.0577  0.1471
 2997SAP6   C2B33871  27.072   4.901   4.793 -0.2370  0.1579 -0.1338
 2997SAP6   C3B33872  27.007   4.739   5.277  0.2697 -0.0300 -0.0763
 2997SAP6   C4B33873  27.081   4.538   5.743 -0.1895 -0.3322 -0.0380
 2998SAP6    C133874   0.652   5.688   3.318 -0.3035  0.0480 -0.0774
 2998SAP6    C233875   0.867   5.560   3.198 -0.1681  0.1462  0.0562
 2998SAP6    C333876   0.618   5.716   3.035 -0.2724 -0.1799 -0.1058
 2998SAP6    C433877   0.713   5.655   3.184 -0.2480  0.0048 -0.0423
 2998SAP6   PO433878   0.737   5.843   3.559  0.0415  0.1647  0.0968
 2998SAP6    P433879   0.612   5.604   2.775 -0.2089 -0.5092  0.2526
 2998SAP6    P533880   0.877   5.299   3.075 -0.2029  0.1585 -0.1710
 2998SAP6   GL133881   0.740   5.736   3.815  0.1749  0.0225 -0.0518
 2998SAP6   GL233882   1.032   5.971   3.922 -0.1434  0.1722 -0.1243
 2998SAP6   C1A33883   0.677   5.648   4.188 -0.0711  0.1082 -0.0522
 2998SAP6   D2A33884   0.741   5.688   4.600  0.1150  0.0215 -0.0534
 2998SAP6   D3A33885   0.746   5.542   5.015 -0.6098  0.1373  0.0095
 2998SAP6   D4A33886   0.885   5.243   5.183  0.4982  0.2704 -0.1573
 2998SAP6   C5A33887   0.521   5.146   5.443 -0.1696  0.1379 -0.2105
 2998SAP6   C1B33888   1.033   6.067   4.372  0.2213  0.0790  0.0489
 2998SAP6   C2B33889   0.959   6.003   4.893 -0.0567 -0.0290  0.0614
 2998SAP6   C3B33890   0.918   5.988   5.350 -0.0611 -0.0450  0.1117
 2998SAP6   C4B33891   0.669   5.870   5.753  0.0725 -0.2675  0.2007
 2999SAP6    C133892  26.745  21.479   2.886 -0.1208  0.2511 -0.2537
 2999SAP6    C233893  26.964  21.592   2.761  0.0842  0.3165  0.1467
 2999SAP6    C333894  26.698  21.762   2.875  0.0588  0.3016  0.1100
 2999SAP6    C433895  26.802  21.611   2.841  0.0074  0.2897  0.0010
 2999SAP6   PO433896  26.885  21.260   3.114 -0.1502 -0.0126 -0.1448
 2999SAP6    P433897  26.711  22.059   2.782  0.0231 -0.0529  0.0639
 2999SAP6    P533898  26.970  21.635   2.468  0.0773  0.1993 -0.0513
 2999SAP6   GL133899  26.798  21.448   3.459 -0.1209 -0.1967 -0.1059
 2999SAP6   GL233900  26.699  21.265   3.675 -0.1008 -0.0157 -0.0177
 2999SAP6   C1A33901  26.705  21.758   3.683 -0.2455 -0.3216  0.1254
 2999SAP6   D2A33902  26.864  22.121   3.711  0.0886  0.3557  0.0900
 2999SAP6   D3A33903  27.273  22.122   3.906 -0.1513  0.1819  0.0527
 2999SAP6   D4A33904  27.793  22.135   3.933  0.1014  0.0023 -0.3019
 2999SAP6   C5A33905  27.872  22.258   4.372  0.2688 -0.1831 -0.1557
 2999SAP6   C1B33906  26.507  21.512   3.957 -0.3484 -0.0610 -0.2506
 2999SAP6   C2B33907  26.467  21.652   4.516 -0.1416 -0.4242 -0.0741
 2999SAP6   C3B33908  26.486  21.759   4.979  0.2074  0.0187  0.0982
 2999SAP6   C4B33909  26.410  21.636   5.470  0.0989 -0.3157 -0.2242
 3000SAP6    C133910  25.624  12.336   3.738  0.2535  0.0364 -0.0404
 3000SAP6    C233911  25.599  12.173   3.515 -0.1863 -0.0783  0.0832
 3000SAP6    C333912  25.659  12.504   3.508  0.1821 -0.1443 -0.1859
 3000SAP6    C433913  25.627  12.338   3.587  0.0831 -0.0621 -0.0477
 3000SAP6   PO433914  25.768  12.102   3.951 -0.1582  0.1748 -0.0049
 3000SAP6    P433915  25.682  12.575   3.227 -0.1111  0.0110  0.0914
 3000SAP6    P533916  25.470  12.115   3.320  0.0742 -0.1542  0.1484
 3000SAP6   GL133917  25.828  12.200   4.250  0.1926  0.0423 -0.2159
 3000SAP6   GL233918  25.607  12.364   4.302  0.0368  0.2935 -0.2246
 3000SAP6   C1A33919  25.914  12.201   4.602 -0.1728  0.0117 -0.2675
 3000SAP6   D2A33920  25.973  12.032   4.999  0.3188  0.1532 -0.0356
 3000SAP6   D3A33921  25.578  12.048   5.244 -0.1802  0.0127 -0.1516
 3000SAP6   D4A33922  25.417  11.718   5.449  0.1678 -0.3652  0.0921
 3000SAP6   C5A33923  25.198  11.259   5.451  0.0351 -0.1201 -0.2156
 3000SAP6   C1B33924  25.417  12.226   4.658 -0.1358  0.0262 -0.2289
 3000SAP6   C2B33925  25.099  12.072   5.006  0.0041 -0.4144 -0.3173
 3000SAP6   C3B33926  25.003  11.986   5.439  0.3699  0.3117 -0.2451
 3000SAP6   C4B33927  25.068  11.915   5.923  0.0951  0.0296 -0.1697
 3001SAP6    C133928  22.956  21.298   3.308 -0.1875  0.1070  0.0447
 3001SAP6    C233929  22.806  21.394   3.096  0.2342  0.2460 -0.2044
 3001SAP6    C333930  23.094  21.528   3.206  0.2402 -0.0729  0.1925
 3001SAP6    C433931  22.952  21.407   3.203  0.0957  0.0934  0.0109
 3001SAP6   PO433932  23.023  20.968   3.324  0.1674  0.0882  0.0240
 3001SAP6    P433933  23.138  21.779   3.043  0.0472 -0.0927  0.0265
 3001SAP6    P533934  22.760  21.649   2.949  0.0371  0.3119  0.1359
 3001SAP6   GL133935  22.922  20.939   3.624 -0.2740  0.1191  0.0415
 3001SAP6   GL233936  22.736  20.682   3.675 -0.0938  0.4741  0.0178
 3001SAP6   C1A33937  22.863  21.205   3.928 -0.0169 -0.0128  0.2898
 3001SAP6   D2A33938  22.706  21.521   3.980 -0.0610  0.0311 -0.3502
 3001SAP6   D3A33939  22.796  21.708   4.376 -0.1907  0.2789 -0.0416
 3001SAP6   D4A33940  22.959  21.475   4.761  0.4738  0.2203 -0.2197
 3001SAP6   C5A33941  23.266  21.610   5.012 -0.1475  0.1656  0.1879
 3001SAP6   C1B33942  22.717  20.675   4.121  0.0957  0.4139 -0.2517
 3001SAP6   C2B33943  22.863  20.566   4.597 -0.0953 -0.1278  0.0449
 3001SAP6   C3B33944  22.917  20.430   4.978 -0.2053 -0.0125  0.1300
 3001SAP6   C4B33945  22.996  20.277   5.414 -0.0860 -0.1254 -0.1221
 3002SAP6    C133946  20.840  27.294   2.867 -0.2022 -0.1920 -0.0516
 3002SAP6    C233947  20.814  27.152   2.631  0.3911 -0.3937 -0.0106
 3002SAP6    C333948  21.034  27.400   2.686 -0.0628 -0.0202  0.1923
 3002SAP6    C433949  20.896  27.282   2.728  0.0420 -0.2020  0.0434
 3002SAP6   PO433950  20.808  27.167   3.145 -0.1421  0.3507  0.1644
 3002SAP6    P433951  21.165  27.421   2.412 -0.1889  0.1953  0.3695
 3002SAP6    P533952  20.781  27.206   2.347 -0.2805  0.0987 -0.0450
 3002SAP6   GL133953  20.761  27.143   3.470  0.0384  0.1602  0.0871
 3002SAP6   GL233954  21.039  27.274   3.530  0.1977 -0.1544  0.0852
 3002SAP6   C1A33955  20.554  27.019   3.739 -0.0052  0.3864  0.1835
 3002SAP6   D2A33956  20.489  26.818   4.033 -0.0568  0.1110 -0.0438
 3002SAP6   D3A33957  20.671  26.577   4.333 -0.0439 -0.2010  0.1341
 3002SAP6   D4A33958  20.862  26.601   4.689  0.1123 -0.1206  0.0197
 3002SAP6   C5A33959  20.903  26.711   5.190 -0.2274  0.0008  0.1405
 3002SAP6   C1B33960  20.924  27.135   3.946 -0.0125  0.3029 -0.1055
 3002SAP6   C2B33961  20.743  27.125   4.438  0.1843  0.0186  0.3677
 3002SAP6   C3B33962  20.568  26.999   4.853  0.0972 -0.3582 -0.1809
 3002SAP6   C4B33963  20.351  26.785   5.187 -0.1069  0.2715  0.4526
 3003SAP6    C133964   1.147  22.649   2.940 -0.2033 -0.0046 -0.1779
 3003SAP6    C233965   1.343  22.455   2.974 -0.0556  0.1579 -0.0851
 3003SAP6    C333966   1.192  22.530   2.683  0.1635  0.1654 -0.1990
 3003SAP6    C433967   1.227  22.545   2.866 -0.0318  0.1062 -0.1540
 3003SAP6   PO433968   1.148  22.923   3.101 -0.3168 -0.1795 -0.0438
 3003SAP6    P433969   1.380  22.354   2.497  0.0165  0.3997 -0.0195
 3003SAP6    P533970   1.319  22.134   2.966  0.1642 -0.4231  0.0783
 3003SAP6   GL133971   1.197  22.816   3.360 -0.2104  0.3287 -0.0453
 3003SAP6   GL233972   0.890  22.721   3.431  0.1426 -0.0352 -0.1289
 3003SAP6   C1A33973   1.222  23.119   3.669  0.0882 -0.2461  0.2285
 3003SAP6   D2A33974   1.410  23.219   3.982 -0.0852  0.2280  0.0439
 3003SAP6   D3A33975   1.433  23.164   4.403  0.0641 -0.2137  0.1108
 3003SAP6   D4A33976   1.676  23.001   4.677 -0.0124  0.2461 -0.3998
 3003SAP6   C5A33977   1.873  22.586   4.861  0.0299 -0.0250  0.0038
 3003SAP6   C1B33978   0.705  22.872   3.796 -0.2091  0.0957 -0.0307
 3003SAP6   C2B33979   0.419  23.130   4.165  0.2247  0.0825  0.0318
 3003SAP6   C3B33980   0.111  23.354   4.483 -0.0282  0.1875  0.1134
 3003SAP6   C4B33981   0.022  23.733   4.698  0.3020  0.2922 -0.1040
 3004SAP6    C133982  23.495  16.656   2.647 -0.0586  0.1153  0.1659
 3004SAP6    C233983  23.417  16.768   2.406  0.0497 -0.0381  0.0575
 3004SAP6    C333984  23.583  16.478   2.441 -0.0974 -0.0938  0.3259
 3004SAP6    C433985  23.498  16.634   2.498 -0.0355 -0.0055  0.1831
 3004SAP6   PO433986  23.234  16.732   2.819  0.2761  0.2268 -0.1735
 3004SAP6    P433987  23.543  16.355   2.192  0.1651 -0.1454 -0.1177
 3004SAP6    P533988  23.497  16.964   2.168  0.0924  0.1766 -0.0833
 3004SAP6   GL133989  23.250  16.789   3.161 -0.0556 -0.2496 -0.2844
 3004SAP6   GL233990  23.094  16.543   3.306  0.0930 -0.0602 -0.0375
 3004SAP6   C1A33991  23.407  17.032   3.391  0.0209  0.2886 -0.4813
 3004SAP6   D2A33992  23.201  17.379   3.482 -0.3677  0.2160  0.1298
 3004SAP6   D3A33993  23.364  17.596   3.781 -0.0010  0.1936  0.0511
 3004SAP6   D4A33994  23.353  18.007   4.075 -0.3739  0.2817  0.1237
 3004SAP6   C5A33995  23.141  18.342   4.288  0.1423 -0.0968 -0.1342
 3004SAP6   C1B33996  23.207  16.411   3.772 -0.0450 -0.0517 -0.2634
 3004SAP6   C2B33997  23.206  16.217   4.268  0.1368  0.1887  0.0689
 3004SAP6   C3B33998  23.157  15.869   4.573 -0.2970 -0.0585 -0.4704
 3004SAP6   C4B33999  23.119  15.505   4.953 -0.3513  0.1106  0.1486
 3005SAP6    C134000  13.048  23.023   3.018  0.2057 -0.1836  0.3324
 3005SAP6    C234001  13.079  22.855   2.800 -0.0527 -0.3552  0.4237
 3005SAP6    C334002  13.326  23.024   2.951  0.0806  0.1049 -0.2608
 3005SAP6    C434003  13.151  22.967   2.923  0.0779 -0.1447  0.1651
 3005SAP6   PO434004  12.816  22.896   3.215  0.0392  0.2749  0.0590
 3005SAP6    P434005  13.572  22.905   2.878 -0.1730 -0.0798 -0.1716
 3005SAP6    P534006  13.189  22.892   2.497 -0.0011  0.1073 -0.0170
 3005SAP6   GL134007  13.022  22.977   3.516 -0.1703 -0.3521  0.1154
 3005SAP6   GL234008  12.815  23.001   3.734  0.0927  0.0077  0.0343
 3005SAP6   C1A34009  13.144  22.723   3.746 -0.2952 -0.2200  0.1485
 3005SAP6   D2A34010  13.158  22.428   4.012 -0.0204  0.0028 -0.1160
 3005SAP6   D3A34011  12.823  22.343   4.347  0.0066 -0.0594 -0.2529
 3005SAP6   D4A34012  12.439  22.132   4.254 -0.2191 -0.1751  0.4171
 3005SAP6   C5A34013  12.364  22.011   4.662 -0.1052 -0.1122 -0.4199
 3005SAP6   C1B34014  12.824  23.041   4.173  0.1291  0.1993 -0.1700
 3005SAP6   C2B34015  12.683  23.150   4.670 -0.0891  0.3192  0.1695
 3005SAP6   C3B34016  12.503  23.113   5.111 -0.0790 -0.0684 -0.3800
 3005SAP6   C4B34017  12.420  23.169   5.624  0.0062  0.3725 -0.3328
 3006SAP6    C134018  10.662  21.032   3.234  0.1646  0.0568  0.0041
 3006SAP6    C234019  10.665  20.833   3.041 -0.1639  0.2745 -0.2361
 3006SAP6    C334020  10.789  21.143   3.003  0.0985  0.2082  0.0394
 3006SAP6    C434021  10.705  21.003   3.093  0.0331  0.1799 -0.0642
 3006SAP6   PO434022  10.796  20.854   3.482  0.4168 -0.2133  0.0185
 3006SAP6    P434023  10.858  21.044   2.680  0.1147  0.0725  0.0412
 3006SAP6    P534024  10.642  20.741   2.733  0.3050  0.1180 -0.1753
 3006SAP6   GL134025  10.719  20.779   3.767  0.0851  0.4365  0.2726
 3006SAP6   GL234026  10.563  20.916   3.922  0.3356  0.0626 -0.0007
 3006SAP6   C1A34027  10.874  20.523   3.937  0.3203  0.0695 -0.1211
 3006SAP6   D2A34028  10.985  20.199   4.142 -0.1688  0.0019 -0.2044
 3006SAP6   D3A34029  10.961  20.278   4.609 -0.2504 -0.2519 -0.0810
 3006SAP6   D4A34030  10.720  20.703   4.599 -0.1982 -0.0316 -0.0212
 3006SAP6   C5A34031  10.575  20.873   5.034  0.1329  0.1612 -0.1509
 3006SAP6   C1B34032  10.777  21.106   4.294  0.2504  0.1623  0.0649
 3006SAP6   C2B34033  10.885  21.132   4.770  0.0652 -0.4755  0.1359
 3006SAP6   C3B34034  10.974  21.126   5.273  0.0434 -0.1502 -0.2405
 3006SAP6   C4B34035  11.329  20.972   5.562 -0.2954  0.2049  0.0270
 3007SAP6    C134036  20.244  13.750   3.092  0.2501  0.0273  0.2250
 3007SAP6    C234037  20.191  13.760   2.820 -0.3261 -0.1144  0.3186
 3007SAP6    C334038  20.429  13.572   2.965  0.0601  0.0440 -0.0851
 3007SAP6    C434039  20.288  13.694   2.959 -0.0053 -0.0144  0.1529
 3007SAP6   PO434040  19.987  13.805   3.253 -0.3091  0.1353  0.0139
 3007SAP6    P434041  20.551  13.382   2.792  0.4016  0.0362 -0.1084
 3007SAP6    P534042  20.376  13.763   2.578 -0.0646  0.1650  0.0995
 3007SAP6   GL134043  19.981  13.656   3.601  0.1232  0.2723  0.0278
 3007SAP6   GL234044  20.251  13.615   3.651 -0.2433 -0.0061 -0.1421
 3007SAP6   C1A34045  19.712  13.686   3.840  0.1106 -0.2480 -0.2657
 3007SAP6   D2A34046  19.364  13.453   3.764 -0.0107  0.3481  0.1947
 3007SAP6   D3A34047  19.064  13.269   3.988 -0.0629 -0.0740 -0.2328
 3007SAP6   D4A34048  18.839  12.983   4.313 -0.1177  0.0091  0.0175
 3007SAP6   C5A34049  18.503  13.108   4.628 -0.1268  0.0982  0.0863
 3007SAP6   C1B34050  20.427  13.517   4.066  0.0178  0.3015  0.1775
 3007SAP6   C2B34051  20.701  13.770   4.379  0.2947 -0.2880  0.1460
 3007SAP6   C3B34052  21.057  14.057   4.508  0.2150 -0.2117  0.0996
 3007SAP6   C4B34053  21.459  14.264   4.711  0.0022  0.1310  0.1739
 3008SAP6    C134054   3.624   5.086   3.164 -0.0654 -0.1060 -0.0308
 3008SAP6    C234055   3.836   5.225   3.054 -0.0710 -0.1371 -0.0814
 3008SAP6    C334056   3.512   5.303   3.014 -0.0686 -0.0761  0.0146
 3008SAP6    C434057   3.657   5.204   3.077 -0.0683 -0.1064 -0.0325
 3008SAP6   PO434058   3.696   4.998   3.501 -0.1911  0.1372 -0.0706
 3008SAP6    P434059   3.629   5.584   2.828 -0.3596 -0.2072 -0.1235
 3008SAP6    P534060   3.962   5.294   2.766 -0.0142 -0.3142 -0.0218
 3008SAP6   GL134061   3.907   5.071   3.754  0.1996 -0.3206 -0.1513
 3008SAP6   GL234062   3.997   5.325   3.762 -0.1884 -0.1544 -0.0318
 3008SAP6   C1A34063   3.681   5.059   4.086  0.0161  0.1298  0.3942
 3008SAP6   D2A34064   3.570   5.289   4.429 -0.2033 -0.0305  0.1707
 3008SAP6   D3A34065   3.260   5.328   4.676  0.0311  0.0437 -0.1626
 3008SAP6   D4A34066   3.160   5.489   5.118  0.1650  0.2261 -0.1267
 3008SAP6   C5A34067   3.153   5.295   5.570 -0.2536 -0.3009  0.1150
 3008SAP6   C1B34068   3.924   5.469   4.152  0.0548  0.1894 -0.0502
 3008SAP6   C2B34069   4.053   5.468   4.665 -0.0452  0.1560  0.1617
 3008SAP6   C3B34070   4.228   5.562   5.061 -0.1020  0.0338 -0.3084
 3008SAP6   C4B34071   4.681   5.683   4.993 -0.1324 -0.0081 -0.0662
 3009SAP6    C134072   7.007   0.831   3.140  0.0449 -0.2392 -0.0347
 3009SAP6    C234073   7.088   0.830   2.875  0.0141 -0.3487 -0.0443
 3009SAP6    C334074   6.854   0.629   3.007 -0.3035  0.0169 -0.0344
 3009SAP6    C434075   6.983   0.764   3.007 -0.0815 -0.1903 -0.0378
 3009SAP6   PO434076   6.964   1.107   3.282 -0.2457  0.1874  0.0198
 3009SAP6    P434077   6.760   0.393   2.903 -0.0458  0.1597 -0.1768
 3009SAP6    P534078   7.238   0.735   2.725 -0.0624  0.0717  0.1998
 3009SAP6   GL134079   7.162   1.157   3.551  0.3862  0.0548  0.3271
 3009SAP6   GL234080   7.363   1.343   3.567  0.3889 -0.2699  0.0981
 3009SAP6   C1A34081   7.119   0.984   3.906  0.0468 -0.2001 -0.0538
 3009SAP6   D2A34082   7.458   1.083   4.114  0.0461  0.0036  0.1134
 3009SAP6   D3A34083   7.358   0.985   4.598 -0.0974 -0.1862  0.1780
 3009SAP6   D4A34084   7.482   1.323   4.938  0.2034 -0.0882  0.2054
 3009SAP6   C5A34085   7.333   0.954   5.148 -0.0774  0.0211  0.0330
 3009SAP6   C1B34086   7.408   1.615   3.911 -0.1919 -0.0209  0.0856
 3009SAP6   C2B34087   7.307   1.764   4.370  0.0131  0.5516  0.0761
 3009SAP6   C3B34088   7.050   1.852   4.756 -0.0323 -0.3513 -0.2779
 3009SAP6   C4B34089   7.057   1.785   5.258  0.1307 -0.0942 -0.3122
 3010SAP6    C134090   2.218   4.971   3.617 -0.3464 -0.2611  0.0797
 3010SAP6    C234091   2.197   4.970   3.341  0.1294  0.1331  0.0274
 3010SAP6    C334092   2.347   4.732   3.525 -0.0315 -0.0426 -0.0647
 3010SAP6    C434093   2.254   4.891   3.494 -0.0829 -0.0569  0.0141
 3010SAP6   PO434094   1.915   5.108   3.724 -0.1646 -0.0036  0.0198
 3010SAP6    P434095   2.399   4.546   3.303 -0.1932  0.0850 -0.0307
 3010SAP6    P534096   2.263   4.998   3.100  0.2084 -0.2385 -0.1687
 3010SAP6   GL134097   1.821   5.307   3.981  0.2094 -0.0574 -0.0021
 3010SAP6   GL234098   1.735   5.586   4.027 -0.0801 -0.2228  0.2328
 3010SAP6   C1A34099   1.748   5.174   4.346  0.1754 -0.0311 -0.0071
 3010SAP6   D2A34100   1.889   5.126   4.721  0.0901  0.2104 -0.0262
 3010SAP6   D3A34101   1.695   5.178   5.122  0.2080  0.1360 -0.3856
 3010SAP6   D4A34102   1.699   5.520   5.351 -0.0999 -0.0604  0.0673
 3010SAP6   C5A34103   1.625   5.521   5.804 -0.0124  0.2803  0.0898
 3010SAP6   C1B34104   1.809   5.757   4.500  0.3430  0.1875  0.0599
 3010SAP6   C2B34105   1.675   5.923   4.918  0.2763  0.0784  0.0527
 3010SAP6   C3B34106   1.402   6.101   5.323  0.0207  0.0649 -0.1681
 3010SAP6   C4B34107   1.247   5.920   5.780  0.1450  0.0827 -0.2498
 3011SAP6    C134108  23.334   9.708   3.036  0.1382 -0.2945  0.3018
 3011SAP6    C234109  23.078   9.699   2.931  0.1346 -0.1516  0.2965
 3011SAP6    C334110  23.313   9.462   2.890  0.0729 -0.1844  0.1228
 3011SAP6    C434111  23.241   9.623   2.952  0.1152 -0.2101  0.2403
 3011SAP6   PO434112  23.289   9.873   3.309  0.0016 -0.2680 -0.2764
 3011SAP6    P434113  23.156   9.324   2.642  0.1214 -0.3752 -0.1307
 3011SAP6    P534114  22.851   9.731   2.712 -0.0779 -0.0558 -0.1531
 3011SAP6   GL134115  23.347   9.774   3.589 -0.2551  0.4180  0.0489
 3011SAP6   GL234116  23.460   9.912   3.777 -0.2559 -0.6630  0.6834
 3011SAP6   C1A34117  23.376   9.385   3.682 -0.0707  0.3178  0.0834
 3011SAP6   D2A34118  23.118   9.060   3.797 -0.2800 -0.3192 -0.0763
 3011SAP6   D3A34119  22.669   9.050   3.767  0.1013  0.0180  0.0217
 3011SAP6   D4A34120  22.651   9.178   4.178  0.1857  0.2463  0.4374
 3011SAP6   C5A34121  23.042   9.415   4.270 -0.2163  0.0122  0.2197
 3011SAP6   C1B34122  23.297   9.854   4.192 -0.0675 -0.1414  0.2287
 3011SAP6   C2B34123  23.051   9.802   4.633  0.2380  0.0779  0.1926
 3011SAP6   C3B34124  22.744   9.868   5.034 -0.0534  0.0725  0.1116
 3011SAP6   C4B34125  22.438   9.996   5.418  0.1281  0.3777 -0.0516
 3012SAP6    C134126   4.591  22.501   3.159 -0.1170 -0.0867 -0.1526
 3012SAP6    C234127   4.544  22.232   3.114 -0.2422 -0.0926  0.0062
 3012SAP6    C334128   4.676  22.445   2.891 -0.1974 -0.2720 -0.1411
 3012SAP6    C434129   4.604  22.393   3.055 -0.1855 -0.1504 -0.0958
 3012SAP6   PO434130   4.648  22.532   3.447  0.1196 -0.0465 -0.1643
 3012SAP6    P434131   4.703  22.302   2.659  0.1028 -0.2321 -0.1887
 3012SAP6    P534132   4.574  21.976   2.987 -0.3269 -0.0273  0.1610
 3012SAP6   GL134133   4.742  22.314   3.770 -0.1116 -0.0418  0.1798
 3012SAP6   GL234134   4.442  22.467   3.854 -0.0041 -0.1790 -0.1020
 3012SAP6   C1A34135   4.997  22.290   4.027 -0.0035  0.1535 -0.0438
 3012SAP6   D2A34136   5.327  22.458   4.227 -0.0792 -0.2464 -0.0037
 3012SAP6   D3A34137   5.456  22.647   4.662  0.1080  0.0080  0.2040
 3012SAP6   D4A34138   5.395  22.545   5.072  0.0520  0.0502 -0.3447
 3012SAP6   C5A34139   5.349  22.674   5.540  0.2395  0.1623 -0.0127
 3012SAP6   C1B34140   4.737  22.601   4.221 -0.1467 -0.0233 -0.0744
 3012SAP6   C2B34141   4.909  22.652   4.739 -0.1521  0.1606  0.0416
 3012SAP6   C3B34142   4.937  22.586   5.219 -0.1528 -0.2173 -0.1159
 3012SAP6   C4B34143   4.883  22.331   5.661  0.3350 -0.0968 -0.1037
 3013SAP6    C134144   0.239   4.430   3.086 -0.0525  0.0233 -0.1923
 3013SAP6    C234145   0.417   4.302   2.915 -0.0766  0.1368 -0.3042
 3013SAP6    C334146   0.167   4.505   2.819 -0.1761  0.0950 -0.1394
 3013SAP6    C434147   0.274   4.412   2.940 -0.1017  0.0850 -0.2120
 3013SAP6   PO434148   0.388   4.497   3.379  0.1493  0.2256  0.1024
 3013SAP6    P434149   0.152   4.387   2.543 -0.1888 -0.0311  0.0395
 3013SAP6    P534150   0.406   4.104   2.772 -0.2399  0.1262 -0.0135
 3013SAP6   GL134151   0.315   4.640   3.628  0.1109  0.3738  0.5392
 3013SAP6   GL234152   0.139   4.402   3.716 -0.0305 -0.0286 -0.1257
 3013SAP6   C1A34153   0.292   4.797   3.986 -0.1603 -0.3262  0.1282
 3013SAP6   D2A34154   0.505   4.858   4.380 -0.3493  0.0378 -0.0027
 3013SAP6   D3A34155   0.432   5.227   4.519  0.1764  0.3426 -0.0602
 3013SAP6   D4A34156   0.480   5.162   4.934 -0.1602  0.0394 -0.0106
 3013SAP6   C5A34157   0.067   5.091   5.110  0.0414 -0.2078 -0.0403
 3013SAP6   C1B34158   0.245   4.196   4.082 -0.2817 -0.1557 -0.1023
 3013SAP6   C2B34159   0.565   3.945   4.397 -0.0677 -0.2977 -0.0076
 3013SAP6   C3B34160   0.804   3.862   4.815 -0.0046  0.1046  0.0493
 3013SAP6   C4B34161   0.972   3.544   5.173  0.2981  0.0049  0.1301
 3014SAP6    C134162  20.026   1.801   3.302 -0.0638 -0.3225 -0.0601
 3014SAP6    C234163  20.110   1.866   3.046 -0.2174 -0.0432 -0.0435
 3014SAP6    C334164  19.791   1.818   3.140 -0.1912  0.1590  0.1571
 3014SAP6    C434165  19.976   1.828   3.163 -0.1575 -0.0689  0.0178
 3014SAP6   PO434166  20.212   1.995   3.481 -0.0620  0.4274 -0.0135
 3014SAP6    P434167  19.602   1.924   2.939 -0.2755 -0.0073  0.3320
 3014SAP6    P534168  20.156   1.891   2.703 -0.0925 -0.2060  0.0990
 3014SAP6   GL134169  20.385   1.998   3.797  0.0394 -0.1941 -0.0175
 3014SAP6   GL234170  20.105   2.054   4.027 -0.3149  0.0120  0.1468
 3014SAP6   C1A34171  20.589   1.944   4.059  0.1654  0.0266  0.2481
 3014SAP6   D2A34172  20.755   1.764   4.413 -0.1300 -0.2627  0.2707
 3014SAP6   D3A34173  21.086   1.818   4.723 -0.0739  0.2059 -0.1150
 3014SAP6   D4A34174  21.053   1.482   5.038 -0.1618 -0.1804 -0.2999
 3014SAP6   C5A34175  21.228   1.187   5.367 -0.1567  0.0193 -0.2385
 3014SAP6   C1B34176  20.260   1.670   4.265 -0.2377 -0.0964  0.4774
 3014SAP6   C2B34177  20.578   1.318   4.122  0.2274  0.0980 -0.1068
 3014SAP6   C3B34178  20.802   0.935   4.242  0.1663 -0.1167  0.0987
 3014SAP6   C4B34179  21.116   0.550   4.409 -0.1071 -0.3844 -0.1521
 3015SAP6    C134180  13.447  24.476   3.339  0.4145 -0.2844  0.1164
 3015SAP6    C234181  13.584  24.408   3.108  0.1226 -0.1396 -0.1062
 3015SAP6    C334182  13.311  24.604   3.122  0.2639  0.0391  0.3906
 3015SAP6    C434183  13.447  24.496   3.190  0.2670 -0.1283  0.1336
 3015SAP6   PO434184  13.629  24.537   3.593 -0.3670  0.0169 -0.2770
 3015SAP6    P434185  13.291  24.728   2.830  0.0985 -0.3072 -0.3554
 3015SAP6    P534186  13.524  24.248   2.833 -0.0598  0.2481 -0.1357
 3015SAP6   GL134187  13.737  24.306   3.821  0.1404  0.1637  0.0683
 3015SAP6   GL234188  13.594  24.542   3.963  0.2144  0.0800  0.0994
 3015SAP6   C1A34189  13.924  24.086   4.014  0.2861  0.0695  0.2945
 3015SAP6   D2A34190  14.251  23.998   4.149  0.0988  0.1603 -0.2194
 3015SAP6   D3A34191  14.631  24.005   4.353  0.2660 -0.2711 -0.0646
 3015SAP6   D4A34192  14.902  23.885   4.719 -0.1635  0.5318  0.0194
 3015SAP6   C5A34193  14.903  23.931   5.171 -0.0100  0.0920 -0.0394
 3015SAP6   C1B34194  13.804  24.611   4.337 -0.0679  0.1721 -0.1951
 3015SAP6   C2B34195  13.858  24.581   4.800  0.1128 -0.0795 -0.5365
 3015SAP6   C3B34196  13.863  24.658   5.309  0.2691 -0.0061  0.2630
 3015SAP6   C4B34197  13.801  24.554   5.821 -0.0121 -0.2147 -0.0879
 3016SAP6    C134198   1.555   4.372   3.196 -0.0434  0.0625  0.1393
 3016SAP6    C234199   1.403   4.517   3.016 -0.0976 -0.0256  0.1134
 3016SAP6    C334200   1.688   4.354   2.943 -0.1195 -0.0613  0.1074
 3016SAP6    C434201   1.549   4.415   3.052 -0.0868 -0.0081  0.1200
 3016SAP6   PO434202   1.348   4.230   3.415  0.0170 -0.2265  0.1281
 3016SAP6    P434203   1.765   4.443   2.641  0.1485  0.0204 -0.0679
 3016SAP6    P534204   1.528   4.836   2.938  0.1013  0.2431 -0.2359
 3016SAP6   GL134205   1.317   4.460   3.668  0.2596 -0.0932  0.2341
 3016SAP6   GL234206   1.053   4.333   3.673 -0.0356  0.0287 -0.0454
 3016SAP6   C1A34207   1.573   4.654   3.914 -0.0990  0.3058 -0.0501
 3016SAP6   D2A34208   1.631   4.739   4.280  0.1854 -0.0917 -0.0914
 3016SAP6   D3A34209   1.381   4.975   4.625  0.0010 -0.2732  0.1323
 3016SAP6   D4A34210   1.277   4.764   5.017  0.1695 -0.0803 -0.1298
 3016SAP6   C5A34211   1.191   5.019   5.436  0.3018 -0.3631 -0.2102
 3016SAP6   C1B34212   0.867   4.056   3.962  0.0513 -0.0760 -0.5406
 3016SAP6   C2B34213   1.110   3.867   4.373 -0.2190 -0.0647  0.1679
 3016SAP6   C3B34214   1.329   3.699   4.714 -0.0806  0.0512  0.0260
 3016SAP6   C4B34215   1.434   3.499   5.156 -0.1772 -0.1553 -0.0844
 3017SAP6    C134216  20.440   6.898   3.070 -0.0459 -0.2346  0.0660
 3017SAP6    C234217  20.280   6.773   2.881 -0.1463 -0.3008  0.1930
 3017SAP6    C334218  20.559   6.949   2.815 -0.1299 -0.4001 -0.0079
 3017SAP6    C434219  20.426   6.873   2.922 -0.1074 -0.3118  0.0837
 3017SAP6   PO434220  20.531   6.706   3.269 -0.1100 -0.1299 -0.1426
 3017SAP6    P434221  20.537   6.948   2.530  0.0701  0.0144  0.3579
 3017SAP6    P534222  20.209   6.638   2.650  0.0956 -0.1429 -0.1163
 3017SAP6   GL134223  20.354   6.493   3.496 -0.1389 -0.1061  0.1285
 3017SAP6   GL234224  20.511   6.658   3.672  0.0188 -0.3831 -0.4281
 3017SAP6   C1A34225  20.231   6.401   3.869  0.2462  0.3603  0.5958
 3017SAP6   D2A34226  20.162   6.054   4.035  0.1991  0.0320 -0.0836
 3017SAP6   D3A34227  20.281   5.869   4.397 -0.1925  0.1597 -0.2114
 3017SAP6   D4A34228  20.105   5.744   4.809 -0.4767 -0.1071  0.0196
 3017SAP6   C5A34229  19.790   5.420   4.973  0.1842 -0.1611  0.1370
 3017SAP6   C1B34230  20.388   6.752   4.012  0.0016 -0.3167  0.2602
 3017SAP6   C2B34231  20.305   6.746   4.552 -0.1289 -0.0511  0.0499
 3017SAP6   C3B34232  20.438   6.459   4.962 -0.1421  0.0623  0.0204
 3017SAP6   C4B34233  20.449   6.439   5.447  0.0167  0.3914  0.1773
 3018W        W34234  24.334  13.424   0.906  0.0999  0.0220 -0.2336
 3019W        W34235   5.308  25.422   9.510 -0.1829 -0.0425 -0.0138
 3020W        W34236  15.463  20.022   7.355  0.3175 -0.2357  0.1513
 3021W        W34237   4.252   1.601   1.718  0.2725 -0.0197 -0.1155
 3022W        W34238  21.436  15.950   7.947  0.0541  0.0302 -0.2029
 3023W        W34239  26.502  25.638   9.479 -0.0005 -0.1631  0.0925
 3024W        W34240  16.232  21.076   1.594  0.1598 -0.0420  0.0306
 3025W        W34241  16.218  24.605   2.563  0.2051 -0.1157  0.3942
 3026W        W34242  11.701   5.460   1.473  0.3657 -0.0774  0.1936
 3027W        W34243   2.373   5.392   9.407  0.1787 -0.2340  0.0321
 3028W        W34244   3.723  17.689   1.183  0.0327  0.3651  0.2037
 3029W        W34245  21.645  24.338   9.453 -0.0694  0.2847 -0.2709
 3030W        W34246  21.864  25.936   2.420  0.0766  0.0284  0.1174
 3031W        W34247  19.180  14.541   8.025  0.2448 -0.2898  0.1637
 3032W        W34248  27.540   7.688   1.845  0.2103 -0.1339  0.2230
 3033W        W34249  20.866   3.088   9.944  0.0702  0.1307 -0.2077
 3034W        W34250   5.717  15.821   2.365  0.0769  0.0169 -0.0984
 3035W        W34251  14.567  15.936   2.488  0.3570  0.2547 -0.1913
 3036W        W34252  13.758  21.957  10.437 -0.4000  0.0668  0.0362
 3037W        W34253  17.995  12.934   1.680 -0.2895 -0.1398  0.0921
 3038W        W34254  17.604  23.503   0.743  0.3273 -0.4251  0.2060
 3039W        W34255  17.955  19.026   0.858 -0.0329 -0.0131 -0.0075
 3040W        W34256   8.994  22.993   7.771 -0.3844 -0.0861 -0.1865
 3041W        W34257  13.860   7.394   9.863 -0.0883  0.1083 -0.0265
 3042W        W34258  23.768  25.073   2.230 -0.0530  0.5187  0.1095
 3043W        W34259  19.052   5.791   7.262  0.0299 -0.3075 -0.1898
 3044W        W34260  21.610  11.399   8.551  0.0119  0.3435  0.2468
 3045W        W34261  10.958   1.357   0.788 -0.3315  0.1229  0.0810
 3046W        W34262   0.581   2.933   8.114  0.1326 -0.1918  0.2241
 3047W        W34263  14.595  25.052   9.996 -0.1794 -0.1687 -0.2934
 3048W        W34264   6.666   1.874   8.430  0.0932 -0.1442 -0.2328
 3049W        W34265   9.377  14.991   1.891  0.3412 -0.1943 -0.1980
 3050W        W34266  18.714  16.747   3.455  0.0646  0.2157  0.0077
 3051W        W34267   8.547  16.352   9.921 -0.0707  0.1791  0.0203
 3052W        W34268  25.445  15.068   2.937 -0.5555  0.4572  0.0528
 3053W        W34269  21.540  17.315   0.350 -0.0053 -0.0933 -0.2358
 3054W        W34270  17.374  10.182   9.375  0.3792 -0.0281  0.0993
 3055W        W34271   6.933  15.626   3.672  0.0778  0.2789 -0.0347
 3056W        W34272  19.003   6.861   1.345 -0.0564 -0.0196  0.0591
 3057W        W34273   5.385   2.466   1.682  0.0172  0.4620 -0.2993
 3058W        W34274  16.718  10.627   9.762 -0.0085 -0.4183 -0.0307
 3059W        W34275  10.941  25.780   1.294 -0.0173 -0.5373 -0.0514
 3060W        W34276  19.149   8.429   9.508  0.1332  0.1787  0.2893
 3061W        W34277  26.496  20.654   0.390  0.1964  0.2818 -0.0520
 3062W        W34278   1.417  16.200   0.513  0.2044  0.1805 -0.1569
 3063W        W34279  27.422  16.132   8.337 -0.1118  0.1301 -0.3900
 3064W        W34280  21.276  23.532  10.448  0.2709  0.0928  0.2901
 3065W        W34281  23.961  19.009   3.315 -0.1328  0.0499  0.1098
 3066W        W34282   5.141   4.183   1.892 -0.3762 -0.3871  0.3210
 3067W        W34283  21.330  20.885   0.591  0.1380 -0.1426  0.2791
 3068W        W34284   1.704  24.566   2.021  0.0935  0.1622 -0.3328
 3069W        W34285   5.095  17.793   2.481 -0.0403 -0.5733 -0.3220
 3070W        W34286   8.920  25.160   8.448 -0.0428 -0.0080 -0.1445
 3071W        W34287  10.776  27.612   0.601  0.1646 -0.1191  0.1799
 3072W        W34288  19.051  14.759   0.891 -0.0721  0.0105  0.1843
 3073W        W34289  19.929   6.962   0.018 -0.1932 -0.0579  0.1837
 3074W        W34290  25.794   4.641   3.472 -0.0468  0.2808 -0.1315
 3075W        W34291   4.408  15.345   9.879 -0.0038  0.0329 -0.1229
 3076W        W34292   0.505  13.984   1.266  0.3851  0.0553  0.0265
 3077W        W34293  18.776  25.898   9.735 -0.0270  0.3860 -0.1417
 3078W        W34294  24.629   1.688   1.278 -0.0981  0.1539  0.1921
 3079W        W34295  26.701  27.209   2.137  0.3372 -0.0388  0.1290
 3080W        W34296   4.160   4.713   1.017  0.2422 -0.1641  0.0552
 3081W        W34297   2.657   3.490   2.724  0.1423  0.0550  0.1554
 3082W        W34298   0.076  17.530   0.853 -0.0222 -0.1154  0.0323
 3083W        W34299  11.017   7.162   0.056  0.0606  0.1928 -0.0830
 3084W        W34300   2.521   1.640   8.166  0.0471  0.1239 -0.1547
 3085W        W34301  10.308  14.955   8.321 -0.2274  0.0832 -0.3390
 3086W        W34302  20.922  19.144   0.954  0.1419  0.1249  0.1696
 3087W        W34303   2.146  26.691   3.039 -0.2082  0.2649  0.2000
 3088W        W34304   5.763   8.741   7.179  0.0995  0.0882  0.1601
 3089W        W34305   8.665  18.115   0.732 -0.0652  0.0219 -0.0347
 3090W        W34306  14.862   6.008   9.798  0.1399  0.0375  0.1474
 3091W        W34307  15.875   3.242  10.052  0.2119 -0.2911 -0.0159
 3092W        W34308  17.641  23.178   2.446  0.1048 -0.1734  0.0298
 3093W        W34309   4.275  15.892   3.535 -0.1604  0.0134  0.3202
 3094W        W34310  24.481  24.308   8.553 -0.0146  0.1591  0.1402
 3095W        W34311  21.835  17.623   2.815  0.1740 -0.0471  0.0164
 3096W        W34312   5.475  11.425   1.128 -0.0704 -0.1732  0.2051
 3097W        W34313  19.427   3.834   2.526  0.0093 -0.1645  0.2262
 3098W        W34314   2.897   4.763   0.223  0.0086 -0.1256 -0.1789
 3099W        W34315   8.779  12.243   1.692 -0.0186 -0.1401  0.0276
 3100W        W34316  25.798   5.829   7.658 -0.0626  0.0525 -0.1967
 3101W        W34317   2.728  25.609  10.378  0.1246 -0.0693  0.0778
 3102W        W34318  25.276  21.502   1.685  0.3072 -0.0382 -0.0815
 3103W        W34319  21.596  10.495   0.727  0.1865 -0.2601  0.2683
 3104W        W34320   5.574  26.422   7.596  0.1650  0.0125 -0.1188
 3105W        W34321  22.818  13.863   0.946 -0.0556  0.2263  0.3299
 3106W        W34322  19.019   6.464   9.635  0.2894 -0.0572 -0.0981
 3107W        W34323  27.035  10.536   7.432  0.4023 -0.1132  0.0433
 3108W        W34324  13.530  10.848   2.244  0.2688 -0.1144  0.1896
 3109W        W34325  22.961  12.318   9.604 -0.2638 -0.1333 -0.1178
 3110W        W34326  15.028  27.082   2.402 -0.1361 -0.1673 -0.4713
 3111W        W34327  25.083  19.429   2.562 -0.2729 -0.1731  0.1808
 3112W        W34328  23.813  27.400   2.835 -0.5210 -0.0454 -0.0138
 3113W        W34329  22.507  17.480   8.689 -0.1923 -0.2392 -0.0126
 3114W        W34330  23.737  16.900  10.510  0.1230  0.0084 -0.4316
 3115W        W34331  26.163  19.308   1.997  0.1290 -0.1078  0.0936
 3116W        W34332  20.603  27.373   9.163  0.0521  0.1053 -0.3766
 3117W        W34333  19.510  21.957  10.282  0.0175 -0.1939  0.1111
 3118W        W34334  11.260  14.762   0.145  0.0248  0.2357 -0.0264
 3119W        W34335   3.716   1.735   8.531  0.0927 -0.2749  0.4270
 3120W        W34336   4.423  14.037  10.048 -0.0442  0.2905  0.1420
 3121W        W34337  16.654  23.635  10.271  0.0408 -0.0201 -0.2198
 3122W        W34338  10.816  16.726  10.098  0.0154 -0.1118  0.1057
 3123W        W34339   8.562  15.366   8.926 -0.2291  0.1210 -0.1992
 3124W        W34340  20.316  16.132   2.820  0.1676  0.2277 -0.6005
 3125W        W34341  20.489  26.931   2.031 -0.1786  0.2616  0.1005
 3126W        W34342   3.638  23.081  10.133 -0.0003 -0.1248 -0.0766
 3127W        W34343  13.474   6.454   2.179  0.0400  0.1143  0.0349
 3128W        W34344  10.908  11.741   2.191 -0.1959  0.1321  0.0895
 3129W        W34345   6.630  13.079   3.436 -0.1978  0.0487  0.1230
 3130W        W34346  25.396  20.522   7.102 -0.3722  0.0565 -0.1867
 3131W        W34347  26.955   4.748   9.975 -0.1450 -0.0293  0.0215
 3132W        W34348  10.949  15.201   1.599 -0.0740  0.0645 -0.2190
 3133W        W34349  25.916   6.119   8.762  0.0286  0.2718 -0.1224
 3134W        W34350  25.159   1.143   3.019 -0.2022 -0.0029  0.1438
 3135W        W34351  10.959  12.634   1.742  0.0887  0.0060 -0.3205
 3136W        W34352   5.073  19.505   0.742 -0.0171  0.4696  0.1832
 3137W        W34353   0.374   1.343   9.480  0.0975 -0.2018 -0.0883
 3138W        W34354  23.632  18.566   6.851  0.0742 -0.0322 -0.1054
 3139W        W34355   6.252   6.644   0.945  0.1578  0.3034  0.2412
 3140W        W34356   2.241  26.857   1.981  0.1685  0.0195 -0.2088
 3141W        W34357  16.066  18.390   9.792 -0.3671 -0.0655 -0.5329
 3142W        W34358  11.924  21.360   1.042  0.1343  0.0583 -0.0028
 3143W        W34359   4.984  14.921   9.300  0.1609 -0.1127 -0.3471
 3144W        W34360  14.686   2.800   1.702 -0.1042 -0.0146 -0.0743
 3145W        W34361  22.576   5.024   3.120 -0.3849 -0.2101 -0.2051
 3146W        W34362  15.524   5.870  10.485 -0.4323 -0.1942 -0.0018
 3147W        W34363  17.686   8.082   7.747 -0.0039 -0.0834  0.3275
 3148W        W34364   2.634  10.626   3.338  0.1499 -0.0363  0.1524
 3149W        W34365  21.683   0.568   2.614  0.0263 -0.3834 -0.1071
 3150W        W34366  13.516   5.613   9.023  0.1075 -0.0173 -0.2653
 3151W        W34367  26.137   8.058   1.224  0.2205  0.1156 -0.0165
 3152W        W34368   7.926  12.695   1.085  0.0138 -0.1810 -0.3407
 3153W        W34369  24.816   3.566   9.201 -0.0877  0.0334 -0.0163
 3154W        W34370  22.846   1.400   1.052 -0.0598  0.0828 -0.1814
 3155W        W34371  20.686  13.407   1.151 -0.2093  0.2139 -0.1506
 3156W        W34372  19.444   3.829   0.260  0.0903 -0.0185 -0.0860
 3157W        W34373  18.904  22.829  10.513  0.1373 -0.0956  0.1648
 3158W        W34374  13.189   5.805   0.881  0.3922  0.0754  0.0924
 3159W        W34375  26.589   6.806   0.416  0.1678  0.3113 -0.1628
 3160W        W34376  21.961   7.022  10.244 -0.0119  0.2328 -0.1335
 3161W        W34377  25.210  12.095   3.835 -0.0572  0.2634 -0.0956
 3162W        W34378  16.558  10.050   8.433  0.2401 -0.4016 -0.0103
 3163W        W34379  20.976  21.887   9.265  0.3347 -0.2364  0.1803
 3164W        W34380  20.602  20.721   2.238 -0.0530 -0.0816 -0.1214
 3165W        W34381  23.758  14.554   9.553 -0.0767  0.2282  0.0460
 3166W        W34382   1.087   0.386   7.746 -0.2283  0.2502  0.1961
 3167W        W34383  25.702  19.401   2.193 -0.0422 -0.0974  0.4960
 3168W        W34384  10.467   8.170   1.458 -0.1452  0.3321 -0.3047
 3169W        W34385  12.275  15.076   1.867 -0.3520  0.0056 -0.3100
 3170W        W34386   0.504  10.462   0.336  0.4809  0.0689  0.1788
 3171W        W34387  15.924   2.315  10.004 -0.1466 -0.2717 -0.3162
 3172W        W34388   7.930   7.794   8.730 -0.0172  0.1493  0.2919
 3173W        W34389   5.877  21.534   9.533  0.1009 -0.2246 -0.2198
 3174W        W34390   8.439  12.666   1.942 -0.1388 -0.2912  0.0633
 3175W        W34391  26.123  19.818   0.217 -0.0971 -0.0404  0.0943
 3176W        W34392   2.283  19.882   0.488  0.0146  0.0954 -0.0782
 3177W        W34393   6.389  17.574   1.302  0.1702  0.0207  0.1141
 3178W        W34394   9.698   1.917   0.376  0.1016 -0.0253  0.0144
 3179W        W34395  15.392  10.415   7.955  0.0685  0.0185  0.2656
 3180W        W34396  16.213   6.251   0.526  0.0821 -0.1347  0.1576
 3181W        W34397  16.696   5.439   9.037 -0.0437 -0.2356 -0.3850
 3182W        W34398   8.526   0.659   1.435  0.1010 -0.0999 -0.1686
 3183W        W34399  18.429  10.119   9.065  0.4498 -0.2447 -0.1573
 3184W        W34400  11.552  20.102   9.864 -0.1191 -0.0415 -0.0468
 3185W        W34401  25.955   1.878   8.668  0.1966  0.0809 -0.0937
 3186W        W34402  12.570  25.456   0.444 -0.0873  0.0833 -0.2847
 3187W        W34403  19.777  19.950   9.031 -0.0122  0.2045  0.3298
 3188W        W34404  22.183   9.228   1.973  0.1382 -0.2494  0.1265
 3189W        W34405   3.367  20.844   1.793  0.3262  0.4168 -0.0608
 3190W        W34406  18.332  21.506   8.893 -0.2165 -0.1255 -0.1795
 3191W        W34407  14.071   7.622   3.478  0.0184  0.3015  0.1725
 3192W        W34408   5.903   4.290   9.294 -0.1410  0.0101 -0.0229
 3193W        W34409  21.270   4.088   2.645  0.0457 -0.4653  0.1687
 3194W        W34410   0.605  17.498   0.017 -0.0960  0.0241 -0.2926
 3195W        W34411  18.543  10.657   0.946  0.1319  0.3801  0.0247
 3196W        W34412   0.048  17.099   2.968  0.1109  0.2161  0.0704
 3197W        W34413   8.319  22.725   2.665  0.0167  0.1909  0.1778
 3198W        W34414  20.651   2.150   2.593 -0.2406 -0.1045 -0.4414
 3199W        W34415   4.287  27.498   0.886 -0.2743  0.1542  0.1775
 3200W        W34416  10.268  23.798   2.989  0.2934 -0.0524 -0.1228
 3201W        W34417  19.140  26.923   2.704  0.0512 -0.1823 -0.1264
 3202W        W34418  17.371  11.093   9.214 -0.1937 -0.2416  0.0870
 3203W        W34419  22.686   5.236   9.671 -0.0383  0.1669 -0.2362
 3204W        W34420  19.372   8.881   3.095 -0.0599 -0.1463  0.0671
 3205W        W34421  15.827   7.199   8.683 -0.1119 -0.3339  0.1470
 3206W        W34422   9.200  18.083   9.196 -0.1566  0.3520  0.2768
 3207W        W34423  12.382  24.822   8.102 -0.1911 -0.2018  0.0770
 3208W        W34424  15.200  14.028   0.321 -0.1441 -0.2643  0.1669
 3209W        W34425   1.615  12.541  10.235  0.0450 -0.1794  0.2139
 3210W        W34426  15.577  26.473   3.430 -0.4177 -0.2304 -0.0028
 3211W        W34427  11.736  21.439   9.474 -0.1179  0.0147  0.0286
 3212W        W34428  21.534   9.948   2.756 -0.1933  0.1029 -0.0718
 3213W        W34429   9.405  26.384   3.455  0.0223  0.3181 -0.1235
 3214W        W34430  22.561  20.840   0.547 -0.1355 -0.1320 -0.2159
 3215W        W34431  25.675   7.585   0.383 -0.0616 -0.4371  0.1260
 3216W        W34432  19.562   1.488   9.417  0.0160  0.0481 -0.1800
 3217W        W34433  18.844  13.719   8.415 -0.4289  0.0201 -0.3568
 3218W        W34434   6.437  18.417   0.503 -0.2089  0.0279 -0.2458
 3219W        W34435  24.926  12.110   0.856  0.0862  0.1572  0.1549
 3220W        W34436   4.256  23.712   2.776  0.0749 -0.1205 -0.0043
 3221W        W34437  13.282   0.883   8.858 -0.0074 -0.1438  0.0044
 3222W        W34438   8.983  22.997   2.273  0.1237  0.1096  0.1760
 3223W        W34439  15.072  22.907   3.128 -0.0295  0.0171  0.1061
 3224W        W34440   3.007  11.288  10.009  0.1687 -0.1069  0.0079
 3225W        W34441  14.889  25.591   2.416 -0.1131  0.2268  0.0393
 3226W        W34442  26.880  19.956   1.887 -0.0487  0.0011  0.3263
 3227W        W34443   6.584  16.035  10.078  0.1539 -0.0528 -0.1773
 3228W        W34444  17.851  10.872   8.379 -0.3335  0.0896 -0.0698
 3229W        W34445  12.043  17.148   2.477  0.4224  0.0485  0.1435
 3230W        W34446  12.270   6.708   9.328  0.0943 -0.2249  0.1158
 3231W        W34447   1.473  16.205   2.116  0.0517  0.4386  0.3418
 3232W        W34448  19.191  11.337  10.106 -0.1650 -0.1276  0.0833
 3233W        W34449  21.874  19.158  10.487  0.0686  0.0484  0.2256
 3234W        W34450   1.134  19.719   8.911 -0.0754  0.0347  0.1234
 3235W        W34451  18.061  13.269   9.323  0.1791  0.1183  0.0275
 3236W        W34452   0.139   4.036   3.267 -0.2923 -0.2864  0.2341
 3237W        W34453  26.873   6.173   2.769  0.2105  0.1022  0.2045
 3238W        W34454   6.171   3.790   0.486  0.3282  0.0704 -0.3045
 3239W        W34455   2.092   8.149   1.194  0.0256  0.1628  0.0857
 3240W        W34456  26.833   1.226   1.711  0.1161  0.0624 -0.1243
 3241W        W34457  18.700  23.955   9.427 -0.3158 -0.1083 -0.3806
 3242W        W34458   4.508  12.416   1.427 -0.1437  0.3753 -0.2461
 3243W        W34459   8.806  27.208   7.839 -0.1248  0.0798  0.0776
 3244W        W34460  25.116  15.278   8.727  0.1867 -0.0323  0.0356
 3245W        W34461   5.424  23.621  10.515 -0.0615 -0.0391 -0.2159
 3246W        W34462  20.021   4.995   2.871 -0.0232 -0.1185  0.0263
 3247W        W34463  22.993   8.283   7.666 -0.1914 -0.2853 -0.0525
 3248W        W34464   0.759  20.061   0.737  0.2878  0.1321 -0.2194
 3249W        W34465   5.846   6.720   0.538 -0.2123  0.4198 -0.2169
 3250W        W34466  23.706  27.042  10.315  0.1207  0.0729 -0.0745
 3251W        W34467  26.003   0.070   1.678  0.0620  0.1124  0.0160
 3252W        W34468   1.272  21.647   8.283 -0.2684 -0.0269  0.1126
 3253W        W34469  12.324  12.218   7.309  0.2812  0.0583 -0.0568
 3254W        W34470   5.080  16.255   7.918 -0.1151 -0.0918 -0.1160
 3255W        W34471  11.015  10.048   1.056 -0.4448  0.1663 -0.1668
 3256W        W34472  12.785  26.883   0.776  0.0072  0.0704 -0.0782
 3257W        W34473  12.213  25.751   0.831 -0.1250 -0.3508  0.1463
 3258W        W34474  25.676  13.652   8.986  0.2082 -0.3954 -0.2551
 3259W        W34475   5.802   1.042   0.112 -0.1777  0.2066 -0.1603
 3260W        W34476  23.679  15.837   1.571 -0.0680  0.5353  0.5811
 3261W        W34477   8.270   8.384   1.402 -0.1766 -0.2160 -0.2347
 3262W        W34478  25.533  16.240   0.973  0.0292 -0.0908  0.2674
 3263W        W34479  26.199   9.187   9.083 -0.2554  0.0480  0.1135
 3264W        W34480  18.977  19.545   7.621 -0.0672 -0.0755 -0.1135
 3265W        W34481  13.825   4.738  10.401 -0.4550 -0.1027  0.0224
 3266W        W34482  14.099   7.923   9.829  0.0023 -0.0195  0.0545
 3267W        W34483  11.269   3.988  10.245  0.1432  0.1462  0.1863
 3268W        W34484   5.988  24.889  10.464  0.1329  0.0212 -0.0661
 3269W        W34485  21.767  20.784   1.571 -0.1408  0.3206  0.0480
 3270W        W34486  22.280   5.787   1.058  0.0382 -0.2519  0.0322
 3271W        W34487  24.536   6.969   2.944  0.3518  0.3161  0.2898
 3272W        W34488  12.446   5.582   2.281  0.0423  0.0432 -0.0545
 3273W        W34489  22.122  20.075   2.520  0.3504 -0.1337  0.3221
 3274W        W34490  16.646  11.197   2.211  0.2674 -0.0569  0.1164
 3275W        W34491  19.204  14.309   0.892  0.3033 -0.1951 -0.1420
 3276W        W34492  25.260  17.735   0.360 -0.0282  0.0394 -0.0428
 3277W        W34493  14.393  19.499   9.078  0.1823 -0.1179  0.2442
 3278W        W34494   5.253  25.583   3.655 -0.1277 -0.0287 -0.1150
 3279W        W34495  23.982   9.239   2.285 -0.0257 -0.0878 -0.1822
 3280W        W34496  17.829   8.546   0.735 -0.2385  0.0795  0.1279
 3281W        W34497  14.445  13.637   0.097  0.2686  0.2517  0.0143
 3282W        W34498   0.853  20.540   9.319 -0.0011 -0.1112  0.0318
 3283W        W34499  23.417  18.241   7.242  0.1544 -0.4067 -0.1281
 3284W        W34500  13.589  14.094  10.173  0.0201  0.3380  0.2941
 3285W        W34501  17.598  20.862   3.289  0.0373 -0.0069 -0.1719
 3286W        W34502  19.749  14.855   2.307 -0.0773  0.2204 -0.0920
 3287W        W34503  23.060  10.228   8.772 -0.1012  0.0399 -0.3673
 3288W        W34504  10.228  10.700   1.201 -0.3592 -0.0857 -0.0284
 3289W        W34505  20.737  20.900   9.500  0.0554  0.0774 -0.2297
 3290W        W34506  10.925  14.007  10.180 -0.1886  0.1652 -0.2981
 3291W        W34507  17.596  16.975   8.035 -0.2466 -0.2974  0.1168
 3292W        W34508   1.232   1.057   1.051  0.0296 -0.1236 -0.1510
 3293W        W34509  23.414  11.391   0.532 -0.0527  0.3051 -0.1358
 3294W        W34510  18.445  24.639   8.287  0.2460  0.1669  0.1878
 3295W        W34511  21.917  24.419  10.444 -0.2431  0.0715 -0.1537
 3296W        W34512  26.633  21.437   1.001  0.3051  0.1962  0.0733
 3297W        W34513  22.157  16.313   8.999  0.3389 -0.1769 -0.1261
 3298W        W34514   7.434  15.522   8.502  0.4010  0.3078  0.2490
 3299W        W34515  11.583   8.375   0.575 -0.0730  0.4275 -0.2850
 3300W        W34516  14.505  19.832   2.506 -0.1200  0.2043  0.1132
 3301W        W34517  12.029  21.054   8.032  0.0242 -0.0871 -0.0152
 3302W        W34518   1.862  26.165   8.784 -0.0394 -0.1039  0.0371
 3303W        W34519  25.688   1.277  10.189 -0.1372  0.0021  0.1014
 3304W        W34520  16.806  12.738   8.866 -0.1203  0.1502  0.0810
 3305W        W34521  22.851  26.393   3.101 -0.0740  0.1031  0.2353
 3306W        W34522   0.434   9.321   3.512  0.0822  0.0643 -0.0302
 3307W        W34523  23.027  18.878   8.498 -0.0691 -0.2140 -0.1234
 3308W        W34524  12.611  19.561   9.097 -0.2059  0.0745 -0.1222
 3309W        W34525  14.173   8.908   3.696  0.0853 -0.2047 -0.1987
 3310W        W34526  16.454  13.645   2.857 -0.0422 -0.1653  0.0870
 3311W        W34527  16.803   5.949   8.743  0.1573  0.0069 -0.2234
 3312W        W34528  24.918  21.799   2.476 -0.0552  0.1064 -0.1803
 3313W        W34529  11.748  18.989   3.778 -0.1670 -0.4078 -0.0393
 3314W        W34530  16.960  27.231  10.346  0.0719 -0.0971  0.2229
 3315W        W34531  13.253  24.460   1.795  0.3417 -0.1191 -0.3444
 3316W        W34532  25.440  13.491   3.853  0.4474 -0.2771 -0.1798
 3317W        W34533   8.180  24.293   1.268 -0.1154 -0.2789 -0.0095
 3318W        W34534   5.697   1.973   3.960 -0.1092  0.2992 -0.1498
 3319W        W34535  20.139  20.744   9.429  0.2048 -0.1508  0.0445
 3320W        W34536  13.587   2.208   8.678 -0.4105  0.0218 -0.1104
 3321W        W34537   1.881   1.931   1.076 -0.3686 -0.1404  0.0611
 3322W        W34538   4.023  19.406   1.603  0.2478  0.1228  0.0198
 3323W        W34539   9.637  13.371   0.608  0.2258  0.2262  0.3163
 3324W        W34540   1.960  15.007   8.164  0.2951  0.2410 -0.2205
 3325W        W34541  19.579  17.953   1.935 -0.0820 -0.1044  0.1757
 3326W        W34542  10.583   9.827   9.845  0.0533 -0.0068  0.1478
 3327W        W34543  13.015  24.126   7.919 -0.1810  0.0565 -0.0572
 3328W        W34544  18.623  14.767   8.523  0.0427  0.2358 -0.0561
 3329W        W34545  11.118   0.369   8.063  0.1040  0.1488  0.0783
 3330W        W34546   9.153   4.350  10.106 -0.5669  0.1914  0.3351
 3331W        W34547  13.690   4.863   2.156  0.1648  0.0695  0.3134
 3332W        W34548  24.931   6.291  10.443  0.0691 -0.0463 -0.0883
 3333W        W34549  18.947   2.179   2.274 -0.1244  0.1698 -0.1102
 3334W        W34550  21.213  13.939   2.829 -0.0708 -0.0217 -0.0275
 3335W        W34551  12.103   1.936   2.780 -0.2329  0.2356 -0.1619
 3336W        W34552  22.315  13.847   7.788  0.1734  0.0751 -0.0821
 3337W        W34553   6.241  16.426   2.329 -0.0038  0.1495  0.3293
 3338W        W34554   6.187  19.915   9.703  0.0295  0.2137  0.2983
 3339W        W34555   1.006  12.918   8.455 -0.0017 -0.2523  0.0587
 3340W        W34556  12.394  10.529   7.707 -0.0419  0.0405  0.1455
 3341W        W34557  12.240  20.392   1.159  0.1825  0.0776 -0.0996
 3342W        W34558   9.069  17.618   1.793 -0.0395  0.0118  0.0265
 3343W        W34559  12.026  25.033   8.995 -0.1016 -0.0848  0.0626
 3344W        W34560  25.573  11.310   9.225  0.3710  0.1010 -0.2294
 3345W        W34561  19.737  20.110   9.884  0.1062 -0.2572 -0.3307
 3346W        W34562  17.136   2.754   0.209 -0.0430 -0.1061  0.1760
 3347W        W34563   8.191  26.576  10.423 -0.3718 -0.0952  0.0582
 3348W        W34564   8.712  14.840   8.717 -0.0660  0.1620  0.0473
 3349W        W34565   2.465   5.413   1.363  0.0903 -0.0015  0.1517
 3350W        W34566  10.622   2.650   9.992 -0.1543 -0.0365  0.2189
 3351W        W34567  21.904  22.988  10.090 -0.1673 -0.0150 -0.3517
 3352W        W34568  15.426   1.268   3.860  0.0407 -0.2137 -0.0396
 3353W        W34569  18.673   0.563   1.798  0.0789 -0.1244  0.2028
 3354W        W34570  22.712   3.514   0.726  0.0916  0.2211 -0.0892
 3355W        W34571   8.159  25.214   2.355 -0.0372  0.1515  0.2476
 3356W        W34572   4.542  19.909   0.120 -0.0417  0.3359  0.2718
 3357W        W34573   8.346  23.546   1.648  0.3153 -0.1604 -0.0343
 3358W        W34574  14.338  22.088   3.153 -0.0338  0.0138 -0.2199
 3359W        W34575   7.490  27.023   3.512 -0.2359  0.1404 -0.1063
 3360W        W34576  22.079  10.192   2.573  0.1519 -0.3255  0.1421
 3361W        W34577   0.335  22.814  10.344  0.2270 -0.2487  0.1364
 3362W        W34578  13.368   8.538   8.772  0.0856 -0.1814  0.2929
 3363W        W34579   6.696  19.517   1.710  0.0319  0.2153  0.1888
 3364W        W34580  17.388   6.705   7.733  0.0413 -0.0656 -0.0033
 3365W        W34581  11.790   9.802   0.427 -0.4222 -0.2707  0.0969
 3366W        W34582  19.124   3.996   8.089 -0.1934  0.0286  0.0550
 3367W        W34583  15.546  22.648   3.018 -0.1877  0.1112 -0.0804
 3368W        W34584  14.719  13.275   3.418 -0.1888  0.0826  0.1301
 3369W        W34585   6.524   3.290   2.965  0.2337 -0.1479 -0.0399
 3370W        W34586   1.971   3.101   2.995  0.0078 -0.1553 -0.1594
 3371W        W34587   2.570   3.897  10.043  0.1020  0.1965 -0.0305
 3372W        W34588  19.803  19.281   0.343 -0.3128 -0.0652  0.0513
 3373W        W34589  13.823  18.001   0.661  0.0031  0.0325 -0.2016
 3374W        W34590  21.692  22.688   2.918  0.0391  0.1626 -0.1969
 3375W        W34591   5.498   4.647   8.098 -0.2129 -0.0951 -0.1777
 3376W        W34592  26.835  22.346   1.478 -0.3406  0.2379 -0.0593
 3377W        W34593   4.297   7.317   7.365  0.0826 -0.0113 -0.3871
 3378W        W34594  13.900  23.449   8.779 -0.0636 -0.0507  0.0027
 3379W        W34595  25.878  12.265   2.808  0.1094  0.1001  0.0175
 3380W        W34596  18.207  12.462   1.731 -0.2594  0.0607 -0.0545
 3381W        W34597   5.475  11.419   0.016  0.0211  0.2987 -0.1125
 3382W        W34598   2.192  10.475   3.047 -0.1114 -0.0766  0.1482
 3383W        W34599   9.280  12.900   1.035 -0.0067 -0.0671 -0.0508
 3384W        W34600  11.919  14.316   2.886 -0.2912 -0.0019  0.2814
 3385W        W34601  25.434   6.278   2.090  0.0652 -0.2160 -0.2204
 3386W        W34602  21.476  13.601   0.028 -0.0359  0.1772 -0.2586
 3387W        W34603  13.909  20.252   8.636  0.0969  0.2010  0.0705
 3388W        W34604   1.842  23.061   8.906 -0.3325  0.3769 -0.1412
 3389W        W34605   6.562  17.700   1.733 -0.1349 -0.0522  0.0835
 3390W        W34606   5.196  24.502   9.536 -0.1448  0.0384  0.2547
 3391W        W34607   1.382  12.165   1.893 -0.1248 -0.1522 -0.1227
 3392W        W34608  20.533  17.157  10.448  0.0678 -0.1148  0.0268
 3393W        W34609  22.454   1.761   8.656  0.0689  0.1605 -0.1519
 3394W        W34610  18.029   0.561   9.825 -0.2596  0.1553 -0.0496
 3395W        W34611  20.899  14.458   0.898  0.2331 -0.1498  0.0947
 3396W        W34612  14.416  25.101   3.203 -0.2006 -0.2844  0.0560
 3397W        W34613   8.686  23.051   1.687 -0.0083  0.1751 -0.0443
 3398W        W34614   1.754  16.036   3.179 -0.0318  0.0469  0.1245
 3399W        W34615  12.852  25.748   4.241  0.1064 -0.1627  0.0715
 3400W        W34616  21.718   6.485   9.227 -0.0342  0.3184  0.2867
 3401W        W34617  27.178  20.047   9.059  0.0932  0.1544 -0.1593
 3402W        W34618  15.100   8.959   3.200 -0.1496 -0.1148 -0.2455
 3403W        W34619  20.850   8.805   1.003  0.0691 -0.0074  0.0584
 3404W        W34620  23.113  20.496   3.411 -0.1597 -0.1426  0.1677
 3405W        W34621  21.393  24.578   0.884  0.3536  0.0126  0.0040
 3406W        W34622   8.548  24.100   3.084  0.1910 -0.0688  0.1821
 3407W        W34623  26.510   7.291   1.893  0.0490  0.1049 -0.0688
 3408W        W34624   3.439  10.063   1.852  0.0899  0.0577  0.0589
 3409W        W34625   4.934   2.038   2.865 -0.0256  0.0081 -0.1876
 3410W        W34626  26.261  12.370  10.270  0.1054  0.1220  0.0752
 3411W        W34627   7.399  24.283   9.968  0.0125  0.3970 -0.2591
 3412W        W34628  21.595  11.329   0.107 -0.0292 -0.0585  0.0545
 3413W        W34629  19.037  12.495   8.731 -0.2248 -0.1620  0.1148
 3414W        W34630  16.166  18.854   8.689 -0.0888 -0.0553  0.0569
 3415W        W34631   3.273  10.503   2.811  0.2704 -0.1299  0.3772
 3416W        W34632  20.144  24.489   9.267 -0.6617  0.2493  0.0080
 3417W        W34633  18.274  19.440   1.394  0.2735  0.3976  0.1287
 3418W        W34634   0.638  26.034   0.254 -0.2827 -0.1246 -0.0451
 3419W        W34635  25.056  23.437   1.226 -0.0075 -0.1767  0.1208
 3420W        W34636  17.371  23.823   0.343  0.0239  0.0423 -0.1253
 3421W        W34637   3.952  18.274   8.645 -0.3639 -0.0333 -0.2653
 3422W        W34638  14.292  21.306   0.515 -0.1401  0.4619  0.0099
 3423W        W34639  11.667  20.434   9.447  0.1421  0.0693  0.0835
 3424W        W34640   7.836  20.232   2.993 -0.1369  0.0690 -0.1616
 3425W        W34641  25.710  17.453   9.983  0.0734  0.1079  0.1625
 3426W        W34642  12.459   0.173   0.330 -0.4136  0.1641  0.0021
 3427W        W34643  21.632  13.295   0.390  0.2584 -0.3608 -0.1959
 3428W        W34644  27.568  27.068   1.834 -0.2286  0.3462 -0.3614
 3429W        W34645  18.870   6.406   8.602  0.3863 -0.0814 -0.1371
 3430W        W34646   6.981  15.864   7.707  0.1199  0.1249 -0.0172
 3431W        W34647   1.410   6.848   2.910  0.0808 -0.1484 -0.0041
 3432W        W34648   9.756   8.726   2.411 -0.1404 -0.3114  0.0104
 3433W        W34649  17.082   9.746   1.784 -0.0639 -0.1046  0.1140
 3434W        W34650  16.859  18.657   0.238  0.0084 -0.1775 -0.1207
 3435W        W34651   0.334   2.842   8.565 -0.1109 -0.2080  0.3156
 3436W        W34652   2.005   3.093   2.168  0.3204  0.0503 -0.1935
 3437W        W34653  26.743   4.007   8.945 -0.2277  0.2156  0.1787
 3438W        W34654   8.512   3.328   8.755  0.1159  0.0351 -0.3472
 3439W        W34655  16.339  12.849   2.747  0.0756  0.0081  0.2663
 3440W        W34656  20.000  25.585   9.574 -0.1797 -0.1546 -0.2888
 3441W        W34657  19.437   2.526   3.548  0.1307  0.0664 -0.1409
 3442W        W34658   4.767   9.347   8.527  0.2002  0.1787 -0.3104
 3443W        W34659  10.222  15.490   2.022 -0.0180  0.0181 -0.0987
 3444W        W34660   2.230  26.261   9.611 -0.1438 -0.0985  0.0591
 3445W        W34661  14.271  20.815   8.025 -0.2026 -0.1430 -0.1303
 3446W        W34662  13.216  17.276  10.372  0.1685 -0.1705  0.0431
 3447W        W34663  14.463  22.904   3.074  0.2385  0.2398  0.3672
 3448W        W34664  25.333  14.690   9.594 -0.1724 -0.0594 -0.0719
 3449W        W34665  27.606  20.066   8.772  0.0471 -0.1541  0.2726
 3450W        W34666  23.139  26.692   1.723 -0.1542  0.1043  0.1804
 3451W        W34667   7.787  23.774   8.841 -0.2314  0.2811 -0.1179
 3452W        W34668  11.121   0.538   2.216 -0.0164 -0.0519 -0.1714
 3453W        W34669  19.357  11.055   9.557  0.0343  0.0103 -0.0477
 3454W        W34670  11.495   0.577   0.621  0.1377 -0.1872 -0.1729
 3455W        W34671   5.575  11.673   2.391 -0.0350  0.4562  0.0537
 3456W        W34672  10.905   9.730   1.597 -0.2613 -0.1481 -0.0546
 3457W        W34673   3.666   3.948   1.924  0.1352  0.0557 -0.2037
 3458W        W34674  19.405  23.580  10.084 -0.2474 -0.0027 -0.0590
 3459W        W34675  17.544  27.458   0.685 -0.0537 -0.1539 -0.0405
 3460W        W34676  18.337  10.005   8.564 -0.2671  0.0727 -0.0733
 3461W        W34677   0.013  12.540   3.185  0.2439 -0.0777 -0.0691
 3462W        W34678  21.090  16.116   9.247 -0.3401 -0.1992  0.2896
 3463W        W34679  10.921   3.653   1.104 -0.3583 -0.1089  0.2339
 3464W        W34680  22.280   6.938   8.319  0.1726 -0.1701  0.0015
 3465W        W34681  16.058  17.411   2.872 -0.1583 -0.3632  0.1802
 3466W        W34682  25.439  13.845   4.222 -0.2816 -0.1250  0.1027
 3467W        W34683  21.463  20.804   7.551 -0.0254  0.0026  0.0643
 3468W        W34684  22.533  27.218   2.737  0.2934 -0.0156 -0.1108
 3469W        W34685  15.223  11.358   0.164 -0.0861 -0.1306 -0.0463
 3470W        W34686  21.994   3.706   8.105  0.2267 -0.2198  0.1642
 3471W        W34687  12.372   5.287   0.454  0.1660  0.2503 -0.3299
 3472W        W34688  26.778  25.405  10.431 -0.1617  0.0390 -0.3615
 3473W        W34689   1.928   3.934   9.939  0.0265 -0.0326 -0.1643
 3474W        W34690   4.658  19.543   0.999  0.1317 -0.1032  0.1593
 3475W        W34691  18.077   8.517   9.318 -0.1638  0.1766  0.0577
 3476W        W34692   4.086  15.891   8.504  0.2249 -0.1573 -0.0391
 3477W        W34693  25.852  13.392   9.861 -0.0185  0.0270  0.1089
 3478W        W34694  15.660  19.310   1.616 -0.1509 -0.3174  0.0633
 3479W        W34695   6.664  13.245   8.772  0.1837 -0.2776  0.1772
 3480W        W34696  12.390  22.947   3.005 -0.2512  0.0763  0.1815
 3481W        W34697  19.582  15.185  10.449  0.0863  0.1246  0.1210
 3482W        W34698   4.364  12.439   2.801  0.2763  0.1390  0.0419
 3483W        W34699  11.424  21.330   0.787  0.1410 -0.4294 -0.0737
 3484W        W34700   8.600  19.024   0.032 -0.1978 -0.1333  0.0559
 3485W        W34701  18.181   5.469   8.728  0.1879  0.0465 -0.2208
 3486W        W34702  23.040  26.335   1.405  0.2531  0.0703 -0.0985
 3487W        W34703  12.077  11.375   0.376 -0.0874  0.2333  0.0202
 3488W        W34704  25.163  19.432  10.425 -0.3453 -0.1054 -0.2302
 3489W        W34705   2.704  25.773   4.051 -0.0409  0.1835 -0.0241
 3490W        W34706   5.928   9.147   9.232  0.0698 -0.2698 -0.3736
 3491W        W34707   8.360  10.311   9.318 -0.0450  0.2000  0.2700
 3492W        W34708   9.865  23.154   9.851  0.1170 -0.2233 -0.1690
 3493W        W34709  26.144  14.686   1.342  0.0136 -0.1160 -0.0127
 3494W        W34710   6.290   7.912   9.058 -0.1235 -0.4285  0.4199
 3495W        W34711   7.082   7.478   9.025  0.2883  0.0963 -0.2137
 3496W        W34712   2.720   0.784   2.939 -0.0353  0.2735  0.2388
 3497W        W34713   1.541   4.457   8.407 -0.0271 -0.1151  0.3223
 3498W        W34714  18.443  20.565   9.838  0.0337 -0.1976  0.3443
 3499W        W34715   5.657  11.664   8.607 -0.5489 -0.1194  0.0823
 3500W        W34716  10.126  13.936   8.855  0.0762  0.1353 -0.2566
 3501W        W34717  23.716  12.825   8.354 -0.3496  0.1265  0.4419
 3502W        W34718  24.634  21.017   8.576 -0.0831  0.0863  0.2425
 3503W        W34719   1.312  23.419   0.482  0.2301  0.0821  0.2103
 3504W        W34720  25.914   6.167   8.195 -0.0347 -0.1340  0.0144
 3505W        W34721  10.498  22.781   2.838 -0.1408 -0.1263 -0.0338
 3506W        W34722   1.621  25.416   0.634  0.0434 -0.1591 -0.3315
 3507W        W34723   2.457   4.558   0.447 -0.1919 -0.0774 -0.2280
 3508W        W34724   7.109   4.761   3.357  0.1449  0.1122 -0.1456
 3509W        W34725  22.566  10.534  10.410  0.1524  0.2457  0.1987
 3510W        W34726  12.187  13.901   1.248 -0.0402 -0.5561 -0.0711
 3511W        W34727  14.741  21.281   1.404  0.3491 -0.0728  0.2645
 3512W        W34728  24.621   8.576   0.944  0.1578  0.1428  0.0328
 3513W        W34729  23.235  17.339   0.412  0.0598  0.1181  0.0937
 3514W        W34730  12.564  21.505   1.062 -0.0945 -0.0908  0.0256
 3515W        W34731  23.017  10.575   0.089 -0.5791  0.1265 -0.0286
 3516W        W34732  14.652  23.269   7.953  0.2487 -0.1600 -0.1282
 3517W        W34733  17.612  22.621   1.808  0.0364 -0.1714  0.0175
 3518W        W34734  21.257  26.732   1.569  0.0653  0.1633 -0.2821
 3519W        W34735  26.227  27.597   0.383  0.1203  0.1133  0.1363
 3520W        W34736   3.192   4.907   9.810  0.1637 -0.0286  0.3145
 3521W        W34737   9.962  10.459   7.663  0.2334  0.1996 -0.1576
 3522W        W34738  27.070  25.007   1.031 -0.2034  0.2100  0.2141
 3523W        W34739  10.469  23.911   9.894  0.2114  0.0580 -0.0775
 3524W        W34740  22.726  10.164   7.380  0.2379 -0.0738 -0.2833
 3525W        W34741   4.006   8.599   8.711  0.4513 -0.1003 -0.1070
 3526W        W34742   2.777  17.308  10.541  0.0525  0.1715 -0.3788
 3527W        W34743   4.022  18.670   8.025  0.2108 -0.0682  0.2907
 3528W        W34744  21.580   7.872   0.630  0.0761  0.1048 -0.0729
 3529W        W34745   3.698  12.678   9.703  0.5758  0.0517  0.2577
 3530W        W34746   6.967   3.908   0.179 -0.1964  0.1928  0.0374
 3531W        W34747  17.599  23.662  10.343  0.3591  0.1318 -0.0751
 3532W        W34748  14.095   2.007   2.769  0.0570 -0.1061  0.1266
 3533W        W34749   3.144   3.254   1.382  0.2572  0.0451  0.1420
 3534W        W34750   5.884  14.691   1.191  0.0638 -0.0822  0.0262
 3535W        W34751   8.388  16.787   0.580  0.2931  0.3937  0.0134
 3536W        W34752  20.828  11.784   1.395 -0.2360 -0.0483  0.2403
 3537W        W34753  16.572   2.018   8.492 -0.0809 -0.2082  0.2618
 3538W        W34754  19.025  12.402  10.361 -0.2832  0.0784 -0.0431
 3539W        W34755  24.608  23.207   9.912  0.0357  0.1976 -0.3029
 3540W        W34756  22.667   3.216   3.075  0.0291  0.1389  0.0154
 3541W        W34757  17.175  14.868  10.401 -0.0067  0.0650  0.1444
 3542W        W34758  21.065  23.420   0.606  0.1061 -0.1451 -0.1484
 3543W        W34759  14.682   8.348   0.173  0.2350 -0.3420  0.2205
 3544W        W34760   5.341  22.186   1.529  0.3498 -0.0651 -0.0811
 3545W        W34761  17.802   8.829   7.615 -0.1254  0.1847 -0.0036
 3546W        W34762  25.769   2.766   2.564 -0.1538 -0.1462  0.0156
 3547W        W34763  20.083  25.745  10.084 -0.1476 -0.2838  0.1221
 3548W        W34764   0.536  11.574   8.289  0.0734 -0.0553  0.0949
 3549W        W34765   2.214  22.980   0.165 -0.3364 -0.0610 -0.1239
 3550W        W34766  20.212   6.593   8.259 -0.1469  0.3186  0.3714
 3551W        W34767   2.205   8.913   2.716  0.1373  0.1971  0.0473
 3552W        W34768   3.526  17.030  10.200 -0.1837 -0.1718  0.0112
 3553W        W34769   3.638   5.806   0.538  0.2780 -0.2858 -0.2309
 3554W        W34770   8.939  15.877   1.714 -0.0496 -0.0192 -0.0319
 3555W        W34771  15.235  24.153   0.073 -0.0692 -0.1024  0.1448
 3556W        W34772  15.852   5.077  10.244 -0.3333 -0.0279  0.1740
 3557W        W34773   1.865  20.684   9.162 -0.2322 -0.0551 -0.0707
 3558W        W34774  12.442   8.510   1.022  0.0397  0.0107  0.1742
 3559W        W34775   7.221  14.616   1.037  0.1740  0.0240  0.0144
 3560W        W34776  11.821  22.138   9.317 -0.3176  0.2596 -0.2521
 3561W        W34777  21.153  21.762   8.428 -0.3876  0.2335  0.0470
 3562W        W34778  13.139   5.965   3.253  0.0057  0.5401 -0.0571
 3563W        W34779   4.117   5.395   2.275 -0.1189  0.0578 -0.0647
 3564W        W34780  13.170  18.252   9.627  0.0012  0.1647  0.2207
 3565W        W34781   2.711   1.192   7.820  0.0740  0.0362  0.0960
 3566W        W34782  25.709  16.006   2.419  0.0562  0.2705  0.0230
 3567W        W34783  12.125  11.608   9.858 -0.1247  0.1894 -0.0841
 3568W        W34784   4.220  13.342   7.912  0.3204 -0.0238  0.1271
 3569W        W34785  18.984  27.413   7.751 -0.0844 -0.1499 -0.1397
 3570W        W34786  23.475  15.274   0.421  0.0363 -0.2890  0.0853
 3571W        W34787   1.676   0.539   1.452 -0.4010  0.1792 -0.1186
 3572W        W34788   5.042   5.716   9.964 -0.2766  0.1507 -0.1837
 3573W        W34789   5.898  10.549  10.249  0.0113  0.3295  0.3024
 3574W        W34790   4.448   3.250   2.496  0.0975 -0.1937 -0.1477
 3575W        W34791   4.848   9.045   9.946  0.0323 -0.1199 -0.1596
 3576W        W34792  19.282  16.178  10.133  0.0234 -0.1531  0.0563
 3577W        W34793  23.215  12.860   0.976 -0.0633 -0.1001 -0.2057
 3578W        W34794   3.466  15.063   0.196  0.2581  0.0726 -0.0539
 3579W        W34795   3.429  12.528   3.553 -0.3564  0.0076 -0.2923
 3580W        W34796   2.781  13.706   3.078  0.1562  0.1271 -0.1658
 3581W        W34797   5.059  13.342   1.824  0.2265  0.0149  0.3388
 3582W        W34798  15.948   8.493   0.993 -0.1984  0.0476  0.2676
 3583W        W34799   8.198   5.564   2.075  0.4923  0.1754 -0.5823
 3584W        W34800  19.770  16.722   9.419 -0.1294  0.1785  0.0197
 3585W        W34801  10.742  23.669   2.473  0.1539 -0.1866  0.0330
 3586W        W34802  21.841  23.269   8.655  0.0197 -0.3199  0.0703
 3587W        W34803  13.736  10.753   0.462  0.1160  0.1150 -0.0114
 3588W        W34804   6.515   3.221   7.467  0.2378 -0.1391 -0.3161
 3589W        W34805  23.569   6.906   9.214  0.0358  0.0172 -0.0096
 3590W        W34806  24.683  25.225   0.795 -0.1525  0.3570  0.1556
 3591W        W34807  11.280  10.449   2.456  0.1423 -0.1843  0.1084
 3592W        W34808  10.395  15.828   9.041  0.0587  0.0127 -0.0375
 3593W        W34809   8.725  18.383   9.371  0.1929  0.1218  0.0097
 3594W        W34810  20.168   2.918   1.496  0.0924 -0.1936  0.0504
 3595W        W34811  13.200  26.467   1.498  0.1557 -0.1149 -0.0026
 3596W        W34812   4.858  19.051   0.848  0.1485  0.0402 -0.2019
 3597W        W34813  11.033  18.688   3.224 -0.1305 -0.0509 -0.1469
 3598W        W34814  17.103   0.605   1.279  0.1913 -0.1352  0.2603
 3599W        W34815   9.618   2.515   3.286  0.2800 -0.0596  0.1149
 3600W        W34816  15.736  10.968   2.652 -0.1664  0.0430 -0.1409
 3601W        W34817  16.099  18.296   2.623  0.3811  0.1234 -0.1490
 3602W        W34818   1.485  18.497   7.662 -0.1537 -0.2785 -0.0626
 3603W        W34819   7.715  19.021   2.419  0.0958  0.0831 -0.2018
 3604W        W34820  14.344  12.592   1.451  0.0579  0.2468 -0.1375
 3605W        W34821  17.026  18.249   8.606  0.0950 -0.0119  0.0069
 3606W        W34822  12.744   7.082   9.545 -0.0398  0.1066 -0.2592
 3607W        W34823   4.952   0.730   3.112 -0.1091 -0.1275  0.4713
 3608W        W34824  10.873  18.811   9.115 -0.0453  0.1887 -0.0099
 3609W        W34825  20.703   9.436   9.128  0.0035 -0.4440  0.0715
 3610W        W34826  11.616  20.675   9.968  0.1701  0.1599 -0.0313
 3611W        W34827  13.859   5.106   1.265  0.0986  0.1010 -0.4390
 3612W        W34828  18.106  20.245   8.320 -0.0015  0.2035  0.0243
 3613W        W34829   3.373  15.980   7.621 -0.0777 -0.0800 -0.0859
 3614W        W34830  21.812   4.469   3.642 -0.1857 -0.1447 -0.0338
 3615W        W34831  14.718   9.843  10.245  0.0694 -0.0966 -0.4027
 3616W        W34832  17.304   2.475   1.728 -0.0365 -0.2630 -0.2202
 3617W        W34833   1.343  22.334  10.466 -0.0901  0.1824 -0.2200
 3618W        W34834   0.661   0.341   9.476  0.4440 -0.0091  0.0951
 3619W        W34835   6.304  19.336   7.637  0.2741 -0.3567  0.1509
 3620W        W34836  22.929  21.402  10.024  0.0220  0.2209  0.1761
 3621W        W34837  24.338   5.091   8.567  0.2503  0.0725  0.0548
 3622W        W34838  10.433  26.015   9.358 -0.0181  0.0876  0.2028
 3623W        W34839  22.996  19.521   8.907 -0.1357  0.0667  0.0380
 3624W        W34840  11.515  24.410   8.571 -0.1355 -0.3489 -0.0214
 3625W        W34841  12.978  27.357   2.727 -0.3663 -0.1561 -0.4970
 3626W        W34842   8.759   9.649   7.248 -0.0847  0.0934 -0.0141
 3627W        W34843   9.790  26.078   8.026 -0.0566  0.1057 -0.2485
 3628W        W34844   3.180  13.647   1.690  0.0078  0.0329 -0.0376
 3629W        W34845   4.783  19.814   9.927  0.4875 -0.0602  0.0704
 3630W        W34846  14.550  26.931   2.106  0.2383 -0.1063  0.0724
 3631W        W34847  10.630  11.772   8.208  0.1915  0.0730  0.0151
 3632W        W34848   0.442   6.132   0.308  0.1327 -0.0966  0.0189
 3633W        W34849  23.213   6.572  10.319  0.1093  0.0175 -0.0151
 3634W        W34850  21.795   2.098   9.658 -0.1458 -0.2923 -0.1093
 3635W        W34851   0.857  24.066   0.678  0.0124 -0.1933  0.3279
 3636W        W34852  21.357  12.285   7.747 -0.0325  0.2084  0.0391
 3637W        W34853   4.432  21.029   8.282 -0.1902  0.2135 -0.0630
 3638W        W34854   7.672   6.161   9.813  0.0303 -0.0048 -0.1420
 3639W        W34855  21.238   6.127   7.519  0.1064 -0.0475 -0.0145
 3640W        W34856  17.734  24.003   1.104  0.0784  0.0742 -0.0088
 3641W        W34857  21.717   5.127   8.620  0.1829 -0.2910  0.0270
 3642W        W34858  26.179  12.600   3.166 -0.0684 -0.3620 -0.2907
 3643W        W34859  11.616  11.577   3.056  0.2293  0.2397 -0.1105
 3644W        W34860  15.359  23.186   8.024  0.2862  0.0350 -0.0198
 3645W        W34861  25.271   4.771   2.798 -0.2852 -0.1286  0.0724
 3646W        W34862   7.778   3.799   9.217 -0.2786  0.2184  0.2414
 3647W        W34863  16.939  19.808   8.250  0.0428 -0.0124  0.0997
 3648W        W34864  16.959  21.550   8.820  0.1228 -0.1075 -0.2109
 3649W        W34865  19.649   0.341   9.441  0.1840  0.3984  0.1187
 3650W        W34866   2.050  25.158   3.486  0.0934  0.0458  0.3432
 3651W        W34867  24.270   8.613   0.599  0.1098  0.1918  0.3775
 3652W        W34868  17.278  14.896   8.339 -0.1220 -0.1968  0.0381
 3653W        W34869  21.251  21.157   3.796 -0.1162  0.1900 -0.3585
 3654W        W34870  14.752  12.600   2.306 -0.0925  0.1533 -0.2061
 3655W        W34871  12.130   5.122   3.526  0.1047  0.1481 -0.0506
 3656W        W34872  15.302  22.347   2.141  0.3552  0.1144  0.0521
 3657W        W34873   4.778  27.212   2.898 -0.3194 -0.2948  0.0150
 3658W        W34874   6.882  27.394   7.587  0.0686  0.6235  0.0283
 3659W        W34875   4.387   7.953   2.202  0.0035 -0.3428  0.1810
 3660W        W34876  25.859   0.491   1.077  0.3219 -0.3419 -0.1756
 3661W        W34877  13.163   5.993   8.904  0.3406 -0.0572 -0.0485
 3662W        W34878   1.360   1.253  10.175 -0.0852 -0.1349  0.0416
 3663W        W34879  19.277  17.547   1.529 -0.0038  0.0696 -0.3280
 3664W        W34880  24.293  10.984   2.903 -0.0559  0.2154 -0.2628
 3665W        W34881  13.557  13.241   9.227 -0.4802  0.3446 -0.1250
 3666W        W34882  24.111  15.023   3.672  0.2875  0.2705 -0.1760
 3667W        W34883  14.308   7.994   0.042  0.4396  0.0237 -0.1982
 3668W        W34884  16.176   6.915   8.285  0.1424 -0.0790 -0.0585
 3669W        W34885   3.481  16.600   2.421  0.1768 -0.0186 -0.0524
 3670W        W34886  14.293   9.987   8.978 -0.2592 -0.0117 -0.3855
 3671W        W34887   6.728  23.294   2.794  0.0729 -0.0221 -0.1290
 3672W        W34888   2.008  25.990   9.210 -0.1143 -0.0207 -0.0522
 3673W        W34889  16.279   8.243   0.580 -0.3198 -0.0423 -0.0905
 3674W        W34890  23.880  17.650   1.083 -0.2229 -0.0842  0.0246
 3675W        W34891  23.345   7.751   9.436 -0.1183  0.0484  0.5510
 3676W        W34892  21.138  12.350   8.173  0.2495 -0.2116 -0.2180
 3677W        W34893   3.132   0.089   0.980 -0.2111  0.3548  0.1560
 3678W        W34894  21.699  11.469   1.661 -0.0214 -0.1473  0.0329
 3679W        W34895   7.335  18.462   0.081 -0.1913  0.2393  0.2242
 3680W        W34896  14.001  21.535   2.559 -0.1132 -0.0680 -0.1055
 3681W        W34897   9.368  15.608  10.226 -0.0832  0.1471  0.1687
 3682W        W34898  10.257  19.336   9.697 -0.0494 -0.0694 -0.0187
 3683W        W34899  18.187  12.762   9.207  0.1019 -0.0985 -0.0473
 3684W        W34900   5.792  26.730   8.350  0.1190  0.0570  0.2979
 3685W        W34901  16.272  17.075   0.660  0.3534  0.0335 -0.2940
 3686W        W34902  18.682  24.740   3.339  0.2630  0.2004 -0.1821
 3687W        W34903  10.398  21.405   1.419  0.0670 -0.1662 -0.3815
 3688W        W34904  12.709  18.073   9.782 -0.0760  0.0258  0.1776
 3689W        W34905  17.312  15.465   1.095  0.2096 -0.0342 -0.1949
 3690W        W34906   8.643   1.689   0.188 -0.1112  0.2903  0.2674
 3691W        W34907   3.131  24.005   2.637 -0.0512  0.0558  0.0755
 3692W        W34908  14.024   1.491   3.506  0.1633 -0.1048  0.1223
 3693W        W34909  20.663  22.222   0.179  0.0173  0.3894 -0.1462
 3694W        W34910   4.604  13.960   7.934  0.1011  0.0814 -0.2031
 3695W        W34911  13.640   8.848   2.661 -0.1594 -0.2277 -0.0570
 3696W        W34912  24.578  19.473   0.579  0.1917  0.0303 -0.0025
 3697W        W34913  20.933  17.548   1.830  0.0157  0.0937  0.2760
 3698W        W34914   8.398   0.167  10.426  0.4589  0.0737  0.6111
 3699W        W34915  15.309  18.664   0.681 -0.1512 -0.1316 -0.2849
 3700W        W34916   4.219  24.688   8.602 -0.3207  0.1669 -0.0063
 3701W        W34917  20.409   2.575   1.134  0.2872  0.2451  0.2086
 3702W        W34918  25.077   9.020   9.373  0.0448  0.1225  0.4326
 3703W        W34919  21.407   0.419   1.746 -0.0862 -0.0085  0.0319
 3704W        W34920  21.819  19.929   0.552 -0.2267 -0.3025  0.0890
 3705W        W34921   0.620  24.957  10.215  0.0102 -0.3960  0.0446
 3706W        W34922   7.447   8.371   1.227  0.0680 -0.2922  0.1196
 3707W        W34923  22.396  23.679   7.929  0.0658 -0.0922  0.1671
 3708W        W34924  11.135  17.008  10.361  0.2600  0.0045  0.1088
 3709W        W34925  21.943  12.813   2.833  0.0357  0.2924 -0.3371
 3710W        W34926  22.523   2.425   3.316  0.1290 -0.0054 -0.0971
 3711W        W34927  26.731  15.954   2.506 -0.2014  0.0407 -0.0145
 3712W        W34928  14.150   4.930   2.280 -0.0853  0.3337 -0.0994
 3713W        W34929   7.417   1.911   9.720  0.1484  0.0399 -0.1187
 3714W        W34930  16.940  22.157   2.835  0.0703  0.0867  0.2588
 3715W        W34931   7.461   1.266   8.093  0.0387 -0.0396  0.0690
 3716W        W34932  21.535  12.805   0.514 -0.0204  0.0751 -0.0742
 3717W        W34933   7.679  22.896   0.331  0.1332  0.1942  0.1054
 3718W        W34934  20.485  18.695   1.501  0.0100  0.0817 -0.2860
 3719W        W34935  26.060   1.110   8.369  0.1347 -0.4406 -0.0077
 3720W        W34936  13.066  22.213   8.107  0.0512  0.1685  0.2981
 3721W        W34937  20.148   4.917   1.715  0.2473 -0.0750  0.0503
 3722W        W34938   6.304  18.020   2.084  0.1202 -0.3173  0.1875
 3723W        W34939  22.472  21.983   8.831  0.1607  0.2121 -0.0948
 3724W        W34940  21.562   9.310   8.278 -0.0463  0.0116  0.0539
 3725W        W34941  19.710  17.456   9.847  0.0923  0.0459 -0.0756
 3726W        W34942  24.140  25.633   1.807 -0.0492  0.0153  0.0129
 3727W        W34943  14.356  12.233   7.524  0.0822  0.0500 -0.0754
 3728W        W34944   7.586   2.282   1.009 -0.0094 -0.1495  0.2109
 3729W        W34945   1.944   3.273   8.123  0.2369 -0.0461 -0.1087
 3730W        W34946  17.699  18.947   3.184 -0.0452  0.0033  0.0812
 3731W        W34947  23.261  27.233   1.768  0.1501 -0.0062 -0.2755
 3732W        W34948   0.004  11.616   9.729 -0.1344  0.2239  0.2310
 3733W        W34949   4.323  24.467   1.715  0.1305  0.0640 -0.0842
 3734W        W34950  27.230  18.352   7.477 -0.3145  0.0108  0.3087
 3735W        W34951   3.333  11.089   7.712 -0.0790 -0.0818 -0.1446
 3736W        W34952  17.823  26.288   3.838  0.2093 -0.1045  0.3267
 3737W        W34953  13.917  19.355   9.861 -0.1152 -0.0986 -0.1282
 3738W        W34954   5.920  23.573   1.250 -0.0385  0.2538 -0.1043
 3739W        W34955   2.037  19.978   9.008  0.0632 -0.1275 -0.3718
 3740W        W34956  18.371   4.794   2.596 -0.0546 -0.2179  0.1945
 3741W        W34957  18.156  15.204   0.961  0.0935 -0.1039  0.1396
 3742W        W34958  16.303  20.833   8.809 -0.0620  0.0880 -0.0883
 3743W        W34959   6.205  13.629  10.177  0.0879 -0.0312 -0.1771
 3744W        W34960  10.750   6.545   2.928  0.0759 -0.2350  0.1616
 3745W        W34961  14.827   2.793   2.954 -0.1316  0.0763  0.2855
 3746W        W34962  21.457   4.341   0.077 -0.1321 -0.0601  0.1514
 3747W        W34963   8.838   1.756   1.853 -0.0969 -0.1637  0.0243
 3748W        W34964  14.785   8.453   9.140 -0.2584 -0.2842  0.2442
 3749W        W34965   7.914   8.970   8.759 -0.2447  0.0135 -0.2287
 3750W        W34966  13.412  20.485   8.732 -0.1477  0.1238 -0.1194
 3751W        W34967  21.367  19.324   3.986 -0.0543 -0.0117 -0.2377
 3752W        W34968   7.834  18.083   2.120  0.0792  0.3903 -0.1813
 3753W        W34969   5.144   1.833   8.698  0.1215 -0.3680 -0.2579
 3754W        W34970  17.816  18.009   3.188 -0.1433 -0.1185  0.0200
 3755W        W34971  21.431   1.216   2.263 -0.0710  0.3381 -0.1337
 3756W        W34972  10.868  10.791   0.389  0.0472  0.3299 -0.0205
 3757W        W34973  21.852  21.085   3.046  0.3531 -0.2693 -0.1698
 3758W        W34974  12.999   6.688   0.843 -0.0314  0.1135  0.0666
 3759W        W34975  24.295  22.074   2.992  0.3584  0.2327 -0.0579
 3760W        W34976  20.999  17.290   8.576  0.0056  0.0515  0.0425
 3761W        W34977  19.522   2.669   2.981  0.0011 -0.0579 -0.0046
 3762W        W34978   8.811   8.273   8.623  0.0209  0.0561 -0.1258
 3763W        W34979  14.462   8.742   9.987  0.1923  0.4194  0.2354
 3764W        W34980   8.504  25.136   7.462 -0.1662 -0.0636 -0.2615
 3765W        W34981  25.645  10.782  10.067 -0.0723  0.1033  0.0117
 3766W        W34982  22.674  14.626   7.614 -0.0298 -0.0067  0.3649
 3767W        W34983  16.054   8.865   0.659 -0.2732 -0.0282  0.0164
 3768W        W34984  24.654  23.563   8.074 -0.0381  0.2771 -0.4264
 3769W        W34985  14.144  26.736   7.847  0.1061 -0.2153  0.2285
 3770W        W34986   0.869  20.960  10.211  0.1371 -0.0156 -0.1814
 3771W        W34987  20.971   3.027   8.203 -0.0949 -0.1221  0.2006
 3772W        W34988  17.722  14.944   8.114  0.2405 -0.0349 -0.1203
 3773W        W34989  20.474  15.471   8.442  0.1963  0.1843 -0.0853
 3774W        W34990  23.417  25.890   2.288 -0.0239 -0.4213 -0.0865
 3775W        W34991  22.210   6.744   2.873  0.1787  0.1369 -0.0470
 3776W        W34992  21.625  19.501   3.078  0.0621 -0.3329  0.2308
 3777W        W34993   2.379  16.589   8.451  0.2813  0.1994 -0.0556
 3778W        W34994   1.035  26.053   2.567  0.0333 -0.3705  0.0970
 3779W        W34995   5.436   4.216  10.440 -0.0481  0.0502 -0.1034
 3780W        W34996   5.372  23.826   1.250  0.2151 -0.1257 -0.2661
 3781W        W34997  10.339   7.944   3.847 -0.2933 -0.1016 -0.0088
 3782W        W34998  15.767  27.445   2.889 -0.2959  0.1003  0.0391
 3783W        W34999  24.488  16.777   8.297 -0.0314 -0.1102  0.4062
 3784W        W35000  13.540   4.281   3.384 -0.1882  0.1399  0.0643
 3785W        W35001  24.287  17.670   8.652  0.1108 -0.0165 -0.0927
 3786W        W35002   4.555  19.245   1.820  0.1079  0.0510  0.0580
 3787W        W35003  19.656  20.837   2.654  0.0854 -0.1328 -0.0331
 3788W        W35004  12.244   7.670   8.543  0.1824 -0.1391  0.0259
 3789W        W35005  27.446   4.643   1.329 -0.0994  0.4454  0.0516
 3790W        W35006  23.940  23.039   2.993 -0.1757  0.0443  0.2028
 3791W        W35007  13.223   3.838   3.402 -0.2327 -0.2357 -0.0744
 3792W        W35008   1.844  24.154   1.640  0.0235 -0.1929  0.2152
 3793W        W35009  26.725   0.563   1.914 -0.1234 -0.0095 -0.0441
 3794W        W35010   5.686  25.425   9.177  0.0582 -0.2316 -0.0334
 3795W        W35011  13.767  10.843   9.159  0.0650 -0.2822 -0.0863
 3796W        W35012  20.816  15.532   9.946  0.1137 -0.0737  0.1855
 3797W        W35013  16.471  11.704   7.604  0.0773  0.0341 -0.0458
 3798W        W35014   9.403  24.012  10.479 -0.2331  0.1162 -0.3507
 3799W        W35015  21.868   4.834   2.317 -0.2264  0.0944 -0.0472
 3800W        W35016  11.290  12.684   9.634  0.1205 -0.4069 -0.0345
 3801W        W35017   2.779  14.223   9.712 -0.5128  0.1867  0.0542
 3802W        W35018  15.946  21.729   7.592 -0.0363 -0.3861 -0.3330
 3803W        W35019   8.841   4.440   8.022  0.2392  0.0902  0.1050
 3804W        W35020   3.256  21.636   2.253  0.4544  0.0903  0.2216
 3805W        W35021  13.315  11.045   9.432 -0.0900  0.0181  0.2667
 3806W        W35022   6.813  15.890   3.017 -0.2150 -0.0381  0.0076
 3807W        W35023  15.190   8.815   0.139  0.0752  0.0403 -0.1184
 3808W        W35024  26.866  19.409   8.247 -0.1458 -0.2529  0.2945
 3809W        W35025   8.634  21.522   7.690  0.1526  0.1290  0.0414
 3810W        W35026  21.204  11.629   3.250 -0.2680  0.1353  0.0557
 3811W        W35027   3.218  18.314   2.504  0.2377 -0.0179 -0.0071
 3812W        W35028  13.925  22.960   8.152 -0.1614 -0.1864 -0.1719
 3813W        W35029   2.117  10.641   2.577 -0.0294  0.0204  0.2433
 3814W        W35030  19.692  24.018   1.407  0.1750 -0.1616  0.0535
 3815W        W35031  10.802   3.540   3.133 -0.1132 -0.3981  0.0611
 3816W        W35032   3.346   8.615   3.250  0.1044 -0.0778 -0.2082
 3817W        W35033  24.150   5.280  10.052 -0.2399 -0.1092  0.0095
 3818W        W35034  10.993  17.808   8.070  0.0403 -0.2250 -0.2655
 3819W        W35035  17.071  23.047   8.935 -0.0529 -0.1749 -0.1366
 3820W        W35036  15.669  25.197   4.346 -0.0724 -0.1031 -0.4465
 3821W        W35037  10.268  25.928   2.404 -0.1087 -0.2251 -0.5402
 3822W        W35038   7.296  19.351   1.174 -0.1107  0.4231  0.4366
 3823W        W35039  19.221  27.327   2.460 -0.0040  0.0255  0.1243
 3824W        W35040  13.692  22.522   8.334  0.0064  0.0413 -0.2434
 3825W        W35041   4.786  15.671   7.828  0.0861 -0.4132 -0.2172
 3826W        W35042   4.107  15.426   9.230  0.0104 -0.2463 -0.3346
 3827W        W35043  23.006  22.793   9.123 -0.0255 -0.0540 -0.0535
 3828W        W35044   9.454  13.589   8.062  0.4179  0.0455  0.1056
 3829W        W35045   3.998  21.324   8.116  0.1258  0.1930  0.3224
 3830W        W35046   0.667  20.907   9.650 -0.0503  0.3052 -0.0870
 3831W        W35047  15.053   9.339   7.285  0.0113  0.2404  0.0474
 3832W        W35048  10.181   4.460   2.182 -0.1821  0.3323 -0.1500
 3833W        W35049   3.266   8.841   1.412 -0.0308  0.1105 -0.1171
 3834W        W35050  24.650  15.183   8.517 -0.2242 -0.4286  0.0282
 3835W        W35051  15.329   5.399  10.440  0.0003 -0.2192  0.0744
 3836W        W35052  24.923   7.487   1.641 -0.0545 -0.2076 -0.1019
 3837W        W35053  25.048  10.074   2.620  0.0196  0.0882 -0.1838
 3838W        W35054  27.584   9.203   8.908 -0.0319  0.2139 -0.4170
 3839W        W35055  14.846  27.321   0.468  0.1121  0.2745 -0.0515
 3840W        W35056   8.168   0.908   0.423  0.0271  0.0901 -0.0758
 3841W        W35057   0.821   3.009   8.565  0.0743  0.2202 -0.2522
 3842W        W35058  24.085  22.069   9.465 -0.0315  0.1180 -0.1931
 3843W        W35059   5.753  24.639   2.968 -0.1344  0.0463  0.0093
 3844W        W35060  18.827   3.721   0.881  0.0776  0.0001  0.1843
 3845W        W35061  18.659   8.876   9.531  0.0153 -0.0202 -0.2102
 3846W        W35062  17.605   4.435   9.355 -0.0336  0.0706  0.1813
 3847W        W35063  25.781   8.211   1.534 -0.0037 -0.2758  0.3027
 3848W        W35064   9.137  19.809  10.145  0.2073  0.0898  0.0912
 3849W        W35065  16.918   9.754   1.306 -0.2867  0.2369  0.2196
 3850W        W35066  21.204  18.884   1.814  0.0722 -0.4399 -0.0509
 3851W        W35067  11.638  15.126   1.010  0.0843 -0.1631  0.0254
 3852W        W35068   2.447  14.512   7.431 -0.0928  0.0440  0.2205
 3853W        W35069  22.700  20.002   1.986 -0.1922  0.0987  0.0186
 3854W        W35070  15.649  23.609   1.712  0.0617 -0.0302 -0.1156
 3855W        W35071  23.487   2.554   2.936 -0.0072 -0.1062  0.0064
 3856W        W35072   1.952  18.254   1.811 -0.3146 -0.1446  0.0505
 3857W        W35073   0.359  17.079   0.823 -0.3021  0.4512  0.0072
 3858W        W35074  13.138   8.140   8.933 -0.2415  0.1576 -0.1334
 3859W        W35075  15.205  19.842   3.692 -0.0331  0.2687  0.0443
 3860W        W35076  14.325  22.089   8.045  0.2109  0.1869 -0.1539
 3861W        W35077   6.192   5.721   2.933  0.3877  0.0088  0.1767
 3862W        W35078  16.212  25.860   9.752  0.1798 -0.0293  0.1506
 3863W        W35079  12.879  10.180   3.498  0.0041 -0.2526 -0.1251
 3864W        W35080  22.235   3.329   9.364  0.1349  0.1992  0.0714
 3865W        W35081   0.472   3.579   9.027 -0.0634 -0.0945 -0.3672
 3866W        W35082   4.081  14.314  10.233  0.0851 -0.3515  0.1905
 3867W        W35083  26.708  10.023   2.180  0.3332  0.2005  0.0533
 3868W        W35084  15.333  26.232   0.599 -0.1093  0.1852  0.1409
 3869W        W35085   6.466  21.842   8.949  0.3567 -0.1186 -0.0049
 3870W        W35086  23.441  21.220   3.293  0.0770 -0.1270  0.1142
 3871W        W35087  25.044   7.685   8.979 -0.3333 -0.0958  0.3741
 3872W        W35088   6.708  22.316   0.875  0.1653 -0.1168  0.3534
 3873W        W35089   6.036  10.945   1.022 -0.1354 -0.0925 -0.1370
 3874W        W35090  14.157  15.594   3.287  0.2539 -0.1979 -0.0913
 3875W        W35091  21.454   5.371   0.822  0.1232  0.0517 -0.0374
 3876W        W35092   1.918  26.043   1.357  0.2305 -0.2678 -0.1953
 3877W        W35093  27.324  17.042   3.937  0.0740  0.1771 -0.0651
 3878W        W35094  18.463  17.543   1.061 -0.1988 -0.0038  0.0096
 3879W        W35095  27.599  13.411   9.710 -0.1000 -0.0932 -0.1326
 3880W        W35096  27.539  16.701   0.928 -0.2339 -0.2687 -0.0280
 3881W        W35097   4.409  13.978   2.815 -0.0753 -0.1912 -0.0406
 3882W        W35098  10.273  12.870  10.059  0.1642  0.3643 -0.0177
 3883W        W35099   0.795  19.045   2.098  0.1319  0.2158  0.0323
 3884W        W35100  21.534  14.472   1.924 -0.0831 -0.3330  0.0030
 3885W        W35101   8.990  11.485   2.346  0.0935  0.4028  0.1353
 3886W        W35102  14.788   1.406   2.069 -0.1584  0.0313 -0.0956
 3887W        W35103  11.667  25.847   9.180 -0.2950  0.1656  0.3627
 3888W        W35104   1.847  14.456   0.190  0.2263  0.4465  0.4709
 3889W        W35105   1.550  18.992   7.440  0.0676 -0.1443 -0.1279
 3890W        W35106  22.789   8.849   2.502  0.1901 -0.1013 -0.3051
 3891W        W35107  21.695  23.918  10.535  0.2451 -0.2388  0.0361
 3892W        W35108   3.695  20.299   8.228  0.1624 -0.1483  0.0201
 3893W        W35109  16.506  19.554   8.281 -0.1538 -0.0787  0.0276
 3894W        W35110  14.093  26.086   1.881 -0.0795 -0.1583 -0.0185
 3895W        W35111  15.328  26.868   2.061 -0.1165  0.0117  0.1703
 3896W        W35112  22.786  23.396   2.566 -0.1392  0.1436 -0.2026
 3897W        W35113  25.196  23.484   0.362  0.2642  0.3409 -0.0182
 3898W        W35114  12.488  24.646   8.747  0.1388 -0.0506  0.1906
 3899W        W35115   7.009  16.781   0.890  0.0522 -0.1813 -0.1569
 3900W        W35116   3.578   6.272   2.759 -0.0089  0.1877 -0.2320
 3901W        W35117  20.392  22.614   3.243  0.0387  0.1645  0.1073
 3902W        W35118  13.996  12.282   8.274  0.0502  0.0739  0.3660
 3903W        W35119  13.124  21.594   3.864  0.0573  0.1307 -0.0095
 3904W        W35120   9.537  21.515   0.123 -0.0117 -0.1054 -0.0306
 3905W        W35121   4.924  11.183  10.526 -0.1999  0.0385 -0.1867
 3906W        W35122   7.158  15.035   8.619 -0.1028 -0.1412  0.0840
 3907W        W35123  14.485   7.186  10.297  0.0930 -0.3705  0.1702
 3908W        W35124  18.727   9.117   0.052  0.2411 -0.0353 -0.0565
 3909W        W35125  10.157  19.299   3.028  0.1869 -0.0868  0.0114
 3910W        W35126  15.133  18.992   2.272 -0.0957 -0.0923 -0.0606
 3911W        W35127   6.715   6.468  10.193  0.0449 -0.0895 -0.0636
 3912W        W35128   3.878  13.478   0.942 -0.0758  0.0876  0.0049
 3913W        W35129  11.658   1.488   8.504  0.2593 -0.0699  0.0658
 3914W        W35130   2.986  17.823   0.719 -0.0886 -0.0278 -0.3089
 3915W        W35131  11.847  16.147   0.926  0.4276  0.0939 -0.2723
 3916W        W35132  18.033  26.522   1.985 -0.4395 -0.1589  0.1019
 3917W        W35133  12.078   3.131   0.547 -0.0889  0.1966  0.0776
 3918W        W35134  26.487  26.809   2.517  0.2965 -0.1753 -0.0966
 3919W        W35135  17.016   0.892   2.656  0.0013  0.0532  0.0863
 3920W        W35136  21.589   2.968   9.514 -0.0647  0.2498 -0.0663
 3921W        W35137  19.958   5.305   9.166  0.1126 -0.0216  0.0968
 3922W        W35138  11.478  12.863   0.532 -0.4271 -0.0204 -0.1349
 3923W        W35139  17.611  18.269  10.000  0.2829 -0.2260  0.1379
 3924W        W35140   6.568  26.181   8.707 -0.0118 -0.2625  0.1285
 3925W        W35141   7.019   1.504   2.114  0.3447  0.3122  0.1494
 3926W        W35142   2.618  25.698   1.822 -0.0729 -0.1866  0.2534
 3927W        W35143   6.205  20.422   9.938  0.0316 -0.3240 -0.1062
 3928W        W35144  16.729   3.280   0.253 -0.0979 -0.0058 -0.4159
 3929W        W35145  10.599  26.496  10.339 -0.1563  0.2280  0.1319
 3930W        W35146  17.802  22.497   0.906 -0.2041 -0.2201  0.0621
 3931W        W35147   2.326  18.210   2.759  0.3416 -0.1701  0.0199
 3932W        W35148  14.944  18.373   9.474 -0.3968  0.0619 -0.0952
 3933W        W35149   6.459  15.678   7.854  0.3729  0.3545 -0.0277
 3934W        W35150  17.191  23.186   2.896 -0.1372  0.2254  0.2085
 3935W        W35151  16.170  10.953   8.068 -0.3548 -0.3063 -0.3774
 3936W        W35152  25.831   4.003   1.029  0.0405  0.2046  0.1144
 3937W        W35153   4.709  13.306  10.380 -0.0653 -0.0471 -0.1924
 3938W        W35154   1.112  16.409   1.846  0.2550 -0.1014  0.1093
 3939W        W35155  19.838   7.998   0.948  0.0076 -0.2471  0.2115
 3940W        W35156  22.782  14.796   1.056  0.0210  0.2170  0.0011
 3941W        W35157  17.941  12.417   8.058 -0.0932  0.0587 -0.1689
 3942W        W35158  15.194  20.662   8.472  0.0189  0.1252 -0.0288
 3943W        W35159  23.892  10.855   1.405 -0.0764  0.1251 -0.0012
 3944W        W35160  11.935   2.014   0.617  0.2924  0.1710  0.0835
 3945W        W35161  12.682  12.779  10.162 -0.1867 -0.1063 -0.4391
 3946W        W35162  15.124  10.989   2.433  0.1365  0.3032  0.0742
 3947W        W35163  20.956  18.844   3.180 -0.3309 -0.1226  0.3087
 3948W        W35164  17.280  18.603   8.165 -0.2614 -0.2111 -0.2435
 3949W        W35165  18.866  18.175   0.370 -0.2315  0.2389  0.0166
 3950W        W35166   6.670   3.712   2.348  0.1999  0.0299 -0.3137
 3951W        W35167  14.754   1.111   9.651 -0.0783  0.0736 -0.0672
 3952W        W35168  15.272  22.642  10.496 -0.4518  0.2394  0.0494
 3953W        W35169  10.557   3.697   9.256  0.0748  0.0717  0.1397
 3954W        W35170  13.452  19.078   1.928  0.2809  0.0889 -0.1855
 3955W        W35171   4.336  16.810   9.808 -0.0394 -0.0082 -0.1042
 3956W        W35172  22.379  11.259   2.523  0.1372 -0.0769  0.1596
 3957W        W35173  22.755  27.542   1.963  0.1150 -0.4678  0.2909
 3958W        W35174   4.928   5.832   2.187  0.1801 -0.2739 -0.0332
 3959W        W35175  25.552  11.795   8.929 -0.3131 -0.1403  0.4935
 3960W        W35176  15.847  24.303   7.584 -0.3181  0.2525 -0.0456
 3961W        W35177  21.668   3.415   3.923  0.0247 -0.0213  0.2057
 3962W        W35178  12.262   2.695   2.271 -0.0068 -0.1525 -0.1555
 3963W        W35179   0.697  10.900   1.288 -0.3895 -0.1006  0.1644
 3964W        W35180  13.814   7.865   0.069  0.2260  0.1126  0.0125
 3965W        W35181  17.755  13.948   9.369  0.0669  0.2162  0.3587
 3966W        W35182  10.288  16.505   0.270 -0.0766  0.2674  0.1461
 3967W        W35183   0.783  25.029   8.495  0.2891 -0.1162 -0.0749
 3968W        W35184  23.092  10.373   1.207 -0.1606  0.0077 -0.1310
 3969W        W35185   2.327  10.253   8.376  0.2290  0.2252  0.2390
 3970W        W35186  12.429  10.671   9.752 -0.0118 -0.2029  0.2450
 3971W        W35187   0.330  25.830   7.737 -0.2546  0.1996  0.3121
 3972W        W35188  10.357  15.879   8.510  0.0638 -0.1770  0.0879
 3973W        W35189  25.015   2.825   0.724  0.4344  0.2582  0.0106
 3974W        W35190  17.615  26.388   2.652  0.0649 -0.2527  0.1639
 3975W        W35191  27.232  16.380   3.227  0.2074 -0.0308  0.2329
 3976W        W35192   0.832  23.291   2.232 -0.2782 -0.2850  0.0998
 3977W        W35193   8.684  11.930   8.117 -0.0590 -0.1864  0.0269
 3978W        W35194   5.314  23.628   3.620  0.1830 -0.2926  0.0393
 3979W        W35195   6.174  20.513   8.953  0.0138 -0.1819 -0.0702
 3980W        W35196   7.601   1.239   1.047 -0.2889 -0.0036  0.0858
 3981W        W35197  13.559  13.215  10.202 -0.1087  0.0243  0.1921
 3982W        W35198   6.682  10.687   2.285  0.0425 -0.1003  0.0534
 3983W        W35199   0.241  19.206   9.160  0.1167  0.1684  0.0845
 3984W        W35200   5.922  11.977   2.537  0.0552 -0.0555 -0.1129
 3985W        W35201   1.225   2.690   2.179 -0.0717 -0.1606  0.3550
 3986W        W35202  19.301  17.923   0.183  0.1329 -0.3250  0.2406
 3987W        W35203  26.458  23.712   8.763 -0.0925  0.1139 -0.2442
 3988W        W35204  26.171   5.462  10.059 -0.2064 -0.1898 -0.0378
 3989W        W35205   2.573  23.832   0.229  0.1050 -0.3100 -0.2657
 3990W        W35206  18.457  13.909   1.803 -0.1850 -0.0814  0.0663
 3991W        W35207  13.356   1.581   3.022 -0.0934 -0.2314  0.1999
 3992W        W35208  21.761  19.350   8.525 -0.1479  0.1118 -0.0549
 3993W        W35209   8.591  20.681   8.012  0.0887  0.0115 -0.3387
 3994W        W35210  16.498  17.572   9.606  0.1426 -0.0463  0.4370
 3995W        W35211   6.065   2.118   1.860  0.1011  0.2095  0.1189
 3996W        W35212   7.020   3.821   8.061  0.2291 -0.0785  0.1813
 3997W        W35213   9.972  16.543   2.463 -0.0149 -0.1759 -0.1404
 3998W        W35214  22.473   7.877   8.354 -0.2463 -0.0407 -0.0784
 3999W        W35215  17.387  15.540   0.044  0.1664 -0.0497 -0.1638
 4000W        W35216  23.216  22.343   2.146 -0.0498  0.0768  0.1717
 4001W        W35217   1.544   3.867  10.308 -0.0449 -0.3256 -0.3333
 4002W        W35218  19.593  25.223   9.714 -0.1417  0.1115  0.3165
 4003W        W35219  17.265   7.199   0.496 -0.1800 -0.1088 -0.0401
 4004W        W35220   5.426  23.020   0.618 -0.0516  0.2253 -0.0987
 4005W        W35221  24.067  26.051   9.971  0.0904 -0.0621  0.1948
 4006W        W35222  12.258  17.315   1.576 -0.4173 -0.0909 -0.0790
 4007W        W35223   2.824  24.758   1.381 -0.1671  0.2565  0.0130
 4008W        W35224   3.377  12.436   7.436 -0.0361 -0.4960 -0.0650
 4009W        W35225   5.216  15.117  10.216 -0.3319  0.1395 -0.0231
 4010W        W35226  25.705   7.010   1.906 -0.0016 -0.1530  0.0047
 4011W        W35227  19.744  22.508   2.097  0.2622  0.2519  0.1204
 4012W        W35228   9.253   4.425   0.261  0.2786 -0.1132  0.0451
 4013W        W35229  13.824  16.728  10.337 -0.0332 -0.1791  0.0302
 4014W        W35230  27.126  14.348  10.102  0.0861 -0.0388  0.3574
 4015W        W35231   5.898  19.264   7.966  0.0018  0.0232  0.0007
 4016W        W35232  11.330  10.199   9.885 -0.2014  0.3110 -0.2214
 4017W        W35233  19.155   6.191   9.143 -0.0987 -0.1420 -0.1958
 4018W        W35234  14.280   6.167   0.081 -0.2541  0.1901  0.1187
 4019W        W35235   5.207  12.318  10.332 -0.3196  0.2539 -0.3748
 4020W        W35236  23.408  13.683   4.152  0.1112 -0.1963  0.2548
 4021W        W35237  12.553  12.559   3.001  0.0900 -0.4515 -0.1039
 4022W        W35238   5.003   2.795   1.344 -0.3415  0.0681 -0.3434
 4023W        W35239   3.164  26.940  10.454 -0.2818 -0.0988  0.1918
 4024W        W35240  23.558  24.739   2.990 -0.0287  0.2592  0.0140
 4025W        W35241   4.482  17.901  10.381  0.2717  0.1935 -0.0427
 4026W        W35242  12.070  25.356   0.533  0.0238 -0.0864  0.4355
 4027W        W35243  16.246  12.843   9.822 -0.1012 -0.3757  0.0127
 4028W        W35244   1.922  17.494   9.307  0.0969  0.1405 -0.5013
 4029W        W35245  25.067  19.119   8.047 -0.3889  0.1852  0.0537
 4030W        W35246  16.018   5.678   3.037  0.1007  0.1499 -0.0390
 4031W        W35247  13.811   0.423  10.432  0.0967  0.0372  0.3751
 4032W        W35248   1.800   7.009   8.834  0.1831  0.0530  0.0126
 4033W        W35249  10.837  20.691   8.477 -0.0613  0.0456  0.0326
 4034W        W35250  14.960   8.959   7.611 -0.2196  0.1798 -0.1631
 4035W        W35251   0.852   4.307   2.648  0.1637 -0.0086 -0.0937
 4036W        W35252   5.207  24.610  10.409 -0.1566 -0.3073 -0.0484
 4037W        W35253  22.250   5.022   9.544  0.2850 -0.0030 -0.1476
 4038W        W35254  13.197  27.570   3.237  0.1389  0.0087 -0.0394
 4039W        W35255   5.147   8.487   3.001  0.1467 -0.1716  0.2023
 4040W        W35256   7.209  19.673   8.621 -0.1343 -0.3825 -0.0962
 4041W        W35257   2.350   2.033   8.988 -0.4549  0.2623 -0.2498
 4042W        W35258   5.200  16.041   8.944  0.3067  0.2921 -0.2287
 4043W        W35259  24.260  13.816   1.213  0.1514  0.1407  0.0782
 4044W        W35260  26.515   7.460   3.666 -0.0944  0.1741 -0.0897
 4045W        W35261   5.171   3.858   8.469  0.0198  0.2024 -0.4290
 4046W        W35262   4.597   2.265   2.570 -0.5599  0.1465  0.2229
 4047W        W35263  22.272   4.839   2.741 -0.1529  0.0179 -0.1294
 4048W        W35264  21.066  21.805   1.713 -0.2141  0.0155 -0.4470
 4049W        W35265  20.107   5.335   1.997  0.1384  0.4204 -0.2337
 4050W        W35266  13.111   2.291   0.972  0.1001 -0.1324 -0.1547
 4051W        W35267  23.228   0.025   0.258  0.2061 -0.1928 -0.3416
 4052W        W35268  11.974   8.023   0.424 -0.1549  0.2803  0.1345
 4053W        W35269   9.287   0.362   9.605 -0.2584 -0.1254 -0.2065
 4054W        W35270  14.346   3.698   3.641 -0.3119  0.2569 -0.1214
 4055W        W35271   6.198  22.242   2.515  0.3713  0.1562 -0.3443
 4056W        W35272  12.739   1.050   2.175 -0.0435 -0.1379 -0.0493
 4057W        W35273   8.692   4.756   0.869  0.0168  0.1062 -0.1773
 4058W        W35274   2.878  26.110   2.995 -0.1433 -0.0623 -0.2720
 4059W        W35275   8.849  13.776   0.019  0.0389 -0.1139 -0.0303
 4060W        W35276  10.615  17.235   8.669  0.3993  0.5834  0.3069
 4061W        W35277  15.928  18.904   1.380 -0.2592 -0.0093 -0.0036
 4062W        W35278  19.657  20.164   1.234 -0.0604  0.3080  0.0588
 4063W        W35279   2.669  19.824   2.633  0.1304  0.1662 -0.1443
 4064W        W35280   9.787   6.436   9.523 -0.4179  0.0888  0.1134
 4065W        W35281  16.600   7.323  10.468 -0.1622  0.2122  0.3657
 4066W        W35282  18.587   8.713   1.178  0.0647 -0.3340  0.0139
 4067W        W35283  19.180  25.458   2.897 -0.0421 -0.3317 -0.0980
 4068W        W35284   7.039   5.530   1.667 -0.0107 -0.3380 -0.1273
 4069W        W35285  24.737  26.179   3.325 -0.0683 -0.0521 -0.0892
 4070W        W35286  26.709   0.428   7.974  0.2051  0.2367  0.1399
 4071W        W35287   5.827  17.383   9.383 -0.0806  0.1282 -0.2085
 4072W        W35288  11.520   4.487   8.274  0.2048 -0.2417  0.3655
 4073W        W35289   8.584   0.228   7.955 -0.1388  0.0747  0.2233
 4074W        W35290   4.134  27.300   8.498 -0.0406  0.0844  0.1335
 4075W        W35291   5.922  27.204   8.271 -0.0524 -0.0111 -0.0710
 4076W        W35292   5.282   3.520   8.870 -0.0283  0.1918  0.2364
 4077W        W35293  15.476   5.805   8.865 -0.0967  0.0302  0.0828
 4078W        W35294  27.454  11.528   2.463  0.5045 -0.0444 -0.2310
 4079W        W35295   0.346   7.634   2.842  0.4764 -0.0038  0.0618
 4080W        W35296   3.481   5.228   9.986 -0.1197 -0.1933 -0.1174
 4081W        W35297   4.375   4.857   1.533  0.0864  0.1060 -0.0036
 4082W        W35298  14.497  20.653   0.513 -0.0439 -0.2024 -0.1870
 4083W        W35299  19.625  21.301   0.224 -0.2093 -0.2649  0.1401
 4084W        W35300  10.823  13.133   8.481  0.1924  0.1027 -0.0562
 4085W        W35301  19.315   9.364   8.362  0.1136  0.1838 -0.0621
 4086W        W35302   4.094  24.491   0.713  0.1797  0.2389 -0.2481
 4087W        W35303   8.622  15.928   1.105 -0.1726 -0.2021  0.0198
 4088W        W35304   6.801   9.071  10.412  0.1970  0.0810  0.1559
 4089W        W35305   4.838  16.944   3.148 -0.0127  0.1873  0.2239
 4090W        W35306  22.130  12.315   1.583  0.0431 -0.0759 -0.1042
 4091W        W35307   2.174  19.641   2.829  0.1156 -0.0812  0.0414
 4092W        W35308  14.977   2.620   0.777 -0.1826 -0.0583  0.0515
 4093W        W35309  25.041   3.012   1.452 -0.2602 -0.0601  0.3295
 4094W        W35310  19.667   4.616   7.749 -0.2590 -0.2064 -0.0920
 4095W        W35311  21.700   7.021   9.079  0.1813 -0.2014 -0.0605
 4096W        W35312  20.932   6.324   1.827 -0.0315  0.1997 -0.1618
 4097W        W35313   8.469  19.243   9.390  0.0598  0.1326 -0.0794
 4098W        W35314  16.342   2.098  10.512  0.2705  0.0851  0.0527
 4099W        W35315  16.822  18.445   1.011  0.0779 -0.0370  0.1759
 4100W        W35316   2.696  19.198   9.733 -0.1040  0.0765 -0.1181
 4101W        W35317  11.135  24.728   8.786 -0.0620  0.3477 -0.3612
 4102W        W35318   3.832   7.633   2.898 -0.1249  0.1897  0.0640
 4103W        W35319  20.332   8.308   0.187 -0.0829 -0.1633  0.0673
 4104W        W35320  27.010  11.437   2.253  0.0582  0.0522  0.0053
 4105W        W35321  12.311  27.014   8.199  0.1639  0.0378 -0.1709
 4106W        W35322  11.339   6.877   1.532  0.0845 -0.0119  0.3392
 4107W        W35323  24.460   5.562   0.315 -0.3224  0.1825  0.0908
 4108W        W35324  21.687   2.755  10.043 -0.0226 -0.2845  0.2133
 4109W        W35325   6.805  17.038   9.058 -0.4595 -0.2814  0.1409
 4110W        W35326   6.256  25.342   8.915  0.1675  0.0712  0.2040
 4111W        W35327  13.890  15.260   7.698  0.2519  0.0087  0.1461
 4112W        W35328  18.859  17.964   1.649 -0.3549  0.1212  0.2060
 4113W        W35329  16.032  16.261   8.718 -0.0053 -0.0024  0.4734
 4114W        W35330  15.849   8.259   2.990 -0.2298  0.0690 -0.0084
 4115W        W35331  17.234  20.635   8.531 -0.0948 -0.2064  0.0269
 4116W        W35332   6.026   6.867   7.947  0.3296  0.2493  0.0139
 4117W        W35333  17.798  19.064   0.188  0.0734 -0.1352  0.3286
 4118W        W35334  13.591  13.602   1.547 -0.3142  0.0487  0.1632
 4119W        W35335  13.449  11.770   0.222 -0.1662  0.3238 -0.1152
 4120W        W35336   0.285  26.886   2.242  0.0598  0.0164 -0.0911
 4121W        W35337   1.404   9.502   3.801  0.0383 -0.0661 -0.2431
 4122W        W35338  24.214  23.150   8.992 -0.5791  0.1411  0.0241
 4123W        W35339   9.041   4.289   2.880 -0.2257 -0.2517  0.1705
 4124W        W35340  13.111  18.829  10.458  0.3320 -0.1920 -0.0524
 4125W        W35341   8.440  13.445   8.005  0.1191 -0.0565  0.0021
 4126W        W35342  15.741   7.329  10.289  0.0520  0.1297  0.0532
 4127W        W35343   9.965   3.266   8.076  0.2001 -0.0086 -0.1366
 4128W        W35344  20.044  24.991   0.330 -0.0504  0.0235 -0.3290
 4129W        W35345  21.139  25.121   9.141  0.0138 -0.1030 -0.3177
 4130W        W35346  15.614   4.104   3.937 -0.0611 -0.1514 -0.2066
 4131W        W35347  14.934  25.130   8.682  0.3256  0.1280 -0.1089
 4132W        W35348  15.402  18.027   2.375 -0.0456  0.2085  0.1996
 4133W        W35349  17.082  26.063   9.552  0.3207  0.0498  0.1522
 4134W        W35350  26.179  25.596   2.534  0.1958  0.2289  0.0689
 4135W        W35351   9.244  20.524   0.397 -0.1058  0.2550 -0.0714
 4136W        W35352  26.672  21.979   2.218 -0.1784 -0.2264 -0.1172
 4137W        W35353  14.093  12.488  10.527  0.0252 -0.1546  0.4950
 4138W        W35354  15.990  18.030   0.842  0.2203 -0.2550  0.2532
 4139W        W35355  23.156  22.851   3.116  0.2631 -0.0247  0.0246
 4140W        W35356  14.812  21.458   2.854  0.1391  0.0368 -0.1281
 4141W        W35357  25.030   1.957   2.852  0.0912 -0.2615  0.0970
 4142W        W35358  16.948  15.053   2.480 -0.2006 -0.0546 -0.1166
 4143W        W35359  15.544  22.192   9.725  0.0325  0.2354 -0.3495
 4144W        W35360  26.621   5.253  10.157  0.2742  0.2174  0.4121
 4145W        W35361  24.380   0.690   9.988  0.0137 -0.1326  0.3367
 4146W        W35362  26.366  18.708   0.905 -0.2707  0.1104  0.1012
 4147W        W35363  25.936  12.882   2.206  0.2941  0.2133  0.0132
 4148W        W35364  15.299  10.724   1.962 -0.1653 -0.2729  0.2822
 4149W        W35365  19.832  23.210  10.168  0.0388  0.0740  0.0081
 4150W        W35366   5.491   8.986   9.396 -0.2519  0.3117  0.0755
 4151W        W35367  11.402  22.316   9.548 -0.1573 -0.2226 -0.1003
 4152W        W35368  20.483   4.729   0.397  0.1177  0.2208 -0.1031
 4153W        W35369  13.667  14.027   0.343 -0.1290 -0.0777  0.2338
 4154W        W35370  10.874   9.564   8.825 -0.1223 -0.4257 -0.1512
 4155W        W35371  15.121  11.054   9.377 -0.2512 -0.2585  0.3731
 4156W        W35372  23.037   6.735   9.286 -0.0370  0.0277 -0.1004
 4157W        W35373  24.920  10.306   3.094 -0.0254 -0.2185  0.1968
 4158W        W35374   2.095  24.194   1.154 -0.0824 -0.0759  0.2177
 4159W        W35375   4.353   0.726   9.998 -0.0855 -0.2616 -0.0028
 4160W        W35376  17.450  22.707   9.234  0.0303  0.0457  0.1648
 4161W        W35377  18.375  20.238   3.017 -0.1927  0.4331  0.3650
 4162W        W35378   3.481   0.938   1.799 -0.3470  0.0661  0.2108
 4163W        W35379  23.090  23.145   0.621 -0.2309 -0.2048  0.1061
 4164W        W35380   2.235   8.533   7.945 -0.4355 -0.1287 -0.1431
 4165W        W35381   6.211  27.054  10.452 -0.0717  0.0109 -0.0144
 4166W        W35382  17.419  10.122   8.122  0.0691 -0.1618 -0.3018
 4167W        W35383   6.588  17.137   2.357 -0.0958 -0.0087 -0.1611
 4168W        W35384  15.899  22.718   0.908 -0.0759  0.1594 -0.0613
 4169W        W35385   4.601   5.332   2.271  0.2593  0.0454 -0.0829
 4170W        W35386  23.285  26.762   1.263 -0.0696  0.3185  0.3379
 4171W        W35387  23.783   4.931   9.182  0.0122 -0.1791  0.0739
 4172W        W35388  27.262  20.771   2.661  0.2458  0.2469 -0.1502
 4173W        W35389   6.430   3.129   8.109 -0.2971 -0.0459 -0.0973
 4174W        W35390   8.947  13.459   8.393  0.0569  0.2508  0.1629
 4175W        W35391   8.169  18.915   2.563  0.1956  0.1160 -0.1765
 4176W        W35392   1.132   7.598   9.551  0.2277 -0.1786  0.0732
 4177W        W35393  24.096   4.455   2.863  0.1576 -0.4231  0.3285
 4178W        W35394   2.920  14.877   2.562 -0.0950 -0.1476 -0.0962
 4179W        W35395   8.515  21.366   1.829  0.2421 -0.0198  0.2847
 4180W        W35396  14.219  20.673   0.051 -0.0005  0.2018 -0.0005
 4181W        W35397   3.091  19.180  10.091 -0.0534 -0.0040  0.1105
 4182W        W35398  22.066  26.558   1.749  0.0819 -0.1152  0.0482
 4183W        W35399   0.336  18.291   9.021 -0.1199  0.2596  0.0476
 4184W        W35400   5.270  22.442   8.701 -0.0516 -0.1570 -0.0404
 4185W        W35401   7.969  25.212  10.074  0.1117 -0.0546  0.1823
 4186W        W35402  11.377   0.662   1.159  0.3998 -0.0987 -0.0184
 4187W        W35403   7.683  12.199   0.050 -0.1404 -0.2391 -0.0587
 4188W        W35404   4.370   0.976   0.958  0.2171 -0.0389 -0.0176
 4189W        W35405  12.506  13.311   8.562 -0.1633 -0.0507 -0.0063
 4190W        W35406  22.685  11.428   3.112  0.0125 -0.0334 -0.1388
 4191W        W35407  21.014   7.126   8.879  0.1070  0.0932  0.0771
 4192W        W35408   9.571  21.542  10.120  0.1386  0.3009  0.0521
 4193W        W35409   6.212   6.093   2.634  0.3342  0.1031 -0.1667
 4194W        W35410   6.760  20.147  10.463  0.1062 -0.0011  0.0903
 4195W        W35411   9.723  12.769   0.668  0.3100 -0.0896  0.1804
 4196W        W35412  15.624  25.476   3.162 -0.1665  0.2056 -0.0511
 4197W        W35413  20.893   2.335   0.508 -0.1757  0.3035 -0.2857
 4198W        W35414  26.098   2.592   1.968 -0.1407  0.1306  0.1821
 4199W        W35415  25.218   1.330  10.424 -0.2219  0.1088 -0.0550
 4200W        W35416   5.679   7.875   1.093 -0.0452 -0.1977 -0.2024
 4201W        W35417   8.493   0.253   3.200  0.3230  0.0347  0.0341
 4202W        W35418  14.924   7.254   1.758 -0.1329 -0.2349  0.1895
 4203W        W35419  23.617  24.673   8.369  0.1793  0.0656  0.2820
 4204W        W35420   7.288  21.548   0.906 -0.1358 -0.2439  0.0916
 4205W        W35421   8.534  10.800   9.499 -0.0781  0.1603  0.0970
 4206W        W35422  11.029  25.684   9.995  0.0612  0.2812 -0.1327
 4207W        W35423   0.100  25.764   0.568 -0.0113 -0.1610  0.0468
 4208W        W35424   2.596  12.977   8.990 -0.0466  0.0595  0.0615
 4209W        W35425  12.340  26.699   0.954 -0.1499 -0.0047 -0.0170
 4210W        W35426  16.903  15.727   2.604  0.2299 -0.0326  0.2601
 4211W        W35427  10.852  11.811   2.714 -0.1562 -0.2529 -0.0507
 4212W        W35428  27.203  21.673   1.985  0.1423  0.1082 -0.0802
 4213W        W35429  17.673   6.579   8.184 -0.1796 -0.0966  0.0659
 4214W        W35430  21.101  15.399   3.596  0.1927 -0.1293  0.2292
 4215W        W35431  10.130  22.411   1.410 -0.2089 -0.2268  0.1000
 4216W        W35432   8.588  26.183   0.098 -0.2251 -0.2421  0.0588
 4217W        W35433   7.984  22.720  10.443  0.0664 -0.1750  0.2318
 4218W        W35434   1.246  11.384   0.254 -0.1773 -0.0551 -0.6129
 4219W        W35435   0.545   1.785   9.253 -0.0611 -0.1251  0.0332
 4220W        W35436  22.116  17.448   8.196 -0.2358  0.5255 -0.0349
 4221W        W35437   7.662  18.761   0.525 -0.3646  0.0170  0.1425
 4222W        W35438  12.800   4.128   0.300  0.3768  0.3352  0.2524
 4223W        W35439  11.831  24.002   1.511  0.0688  0.3338  0.0080
 4224W        W35440   6.421  10.499   9.591 -0.0250 -0.1319  0.2123
 4225W        W35441   6.592   5.420   9.605  0.0092 -0.0782  0.4217
 4226W        W35442  11.614  26.140   0.505  0.0383 -0.0463 -0.0981
 4227W        W35443   4.589  16.450   7.879  0.0398 -0.3840 -0.1565
 4228W        W35444  11.879  27.354  10.020  0.0800 -0.3012 -0.1435
 4229W        W35445  23.392  12.264   9.408  0.0473 -0.1621 -0.0320
 4230W        W35446   5.232  13.133   2.323  0.1854 -0.3056 -0.1364
 4231W        W35447  12.483  27.428   2.854 -0.2167 -0.0421 -0.1401
 4232W        W35448  19.970   9.477   2.001  0.0409 -0.5361 -0.0509
 4233W        W35449  12.950  19.412   8.525 -0.0095  0.2230  0.0867
 4234W        W35450  11.356  22.102   2.234  0.0701  0.0097 -0.0803
 4235W        W35451  21.313  11.152   8.159 -0.0305  0.1898 -0.0114
 4236W        W35452  19.783  26.596   2.668 -0.3546  0.1860  0.1519
 4237W        W35453  20.975  16.922   0.094  0.1351 -0.3230 -0.2017
 4238W        W35454  14.941  17.982   2.191  0.2622 -0.1527 -0.1408
 4239W        W35455  12.958  15.210   1.602 -0.0302  0.1548  0.0216
 4240W        W35456  12.568   5.818  10.174  0.0017 -0.1709  0.1941
 4241W        W35457  11.899  17.226   0.825  0.0356 -0.0502 -0.1974
 4242W        W35458  17.660   7.290   0.242  0.1254  0.1704 -0.3795
 4243W        W35459  20.372   3.889   9.099 -0.2902  0.1702  0.1444
 4244W        W35460  10.698  25.327   9.969 -0.1135 -0.2381  0.0426
 4245W        W35461  21.141  20.261   9.948  0.2813 -0.2595 -0.2564
 4246W        W35462  14.784   3.149   2.578  0.0046  0.1364 -0.2510
 4247W        W35463   2.208  24.496   1.969  0.0173 -0.2843  0.1575
 4248W        W35464  19.450  18.708  10.424 -0.1844 -0.2274  0.2677
 4249W        W35465  20.456  11.120   0.644  0.5958 -0.1230 -0.1178
 4250W        W35466   0.070  16.862   1.926 -0.3005  0.1935  0.0259
 4251W        W35467  15.991  24.486   2.139  0.2026  0.3090 -0.1629
 4252W        W35468  18.576   5.159   2.329 -0.1810  0.0033  0.2185
 4253W        W35469   4.061  13.934   0.401 -0.0653 -0.2031 -0.2449
 4254W        W35470  26.349  17.154   0.565  0.0154  0.1975  0.2443
 4255W        W35471   9.269   1.504   1.708  0.3731 -0.1881 -0.0583
 4256W        W35472  11.200  15.900   8.985  0.1236 -0.3832 -0.1749
 4257W        W35473  26.504  13.211   9.028 -0.0410 -0.0365 -0.0406
 4258W        W35474  13.104  17.705   9.417 -0.0099 -0.4313  0.1386
 4259W        W35475  21.096  24.009   2.428 -0.1347 -0.0491 -0.1908
 4260W        W35476   8.438  13.195   3.167 -0.0520 -0.4947  0.0141
 4261W        W35477  26.631   8.607   1.632  0.0232 -0.1771  0.0376
 4262W        W35478  16.803   2.370   9.786 -0.2444  0.1571  0.1529
 4263W        W35479   7.575   4.206   9.951  0.3588  0.1353 -0.2215
 4264W        W35480  20.232   0.055  10.009  0.1398  0.0871  0.1451
 4265W        W35481  27.420  22.522   1.247 -0.0401  0.1120  0.0180
 4266W        W35482  26.063   2.926   1.093  0.0964  0.2073 -0.0961
 4267W        W35483  10.826  26.813   8.503 -0.0329  0.0829 -0.0375
 4268W        W35484   3.025  17.048   7.448  0.2651 -0.0786 -0.0483
 4269W        W35485  13.437  22.915   3.432 -0.1495  0.1717  0.1011
 4270W        W35486   8.912   7.180   2.991  0.1055  0.0237  0.0052
 4271W        W35487  12.352   1.746   9.816  0.2224 -0.1716  0.2372
 4272W        W35488  16.188   1.082   2.214  0.5452 -0.1625  0.1863
 4273W        W35489  21.714  11.233   3.227  0.2544  0.0735 -0.1904
 4274W        W35490  10.376  13.342   0.061 -0.3309 -0.1930  0.1907
 4275W        W35491  12.333  12.708  10.504 -0.1701 -0.0522 -0.1059
 4276W        W35492  11.515   3.123   8.406  0.1062  0.0343 -0.1626
 4277W        W35493  26.667  12.764   0.957 -0.1693 -0.6252 -0.2726
 4278W        W35494  14.808  25.249  10.366 -0.1235  0.0131 -0.1627
 4279W        W35495  15.107   3.783   1.541 -0.0447 -0.6501  0.3344
 4280W        W35496  20.524   9.622   2.203 -0.1371 -0.0172  0.1597
 4281W        W35497  23.414  25.587   8.432 -0.1797  0.3367  0.0999
 4282W        W35498  25.487  21.475   0.906 -0.1218  0.0019  0.0370
 4283W        W35499   1.897   7.946   3.680  0.2664 -0.1524 -0.1540
 4284W        W35500  15.111   2.848  10.083  0.1628  0.1732 -0.0242
 4285W        W35501   6.228  24.308   2.824 -0.2819  0.1117 -0.3142
 4286W        W35502  27.421   4.576   9.648 -0.2808  0.0951 -0.1590
 4287W        W35503   6.145  15.631   8.282  0.1841 -0.2730 -0.2826
 4288W        W35504  12.391   2.226   0.481  0.1964 -0.1535 -0.0983
 4289W        W35505   0.055  14.176   8.945  0.1560 -0.0942  0.0733
 4290W        W35506  18.750  12.463   1.860 -0.0421 -0.0807 -0.0179
 4291W        W35507   2.796  17.567   8.126 -0.0012  0.3114 -0.2571
 4292W        W35508  23.073   1.111  10.384 -0.0685  0.1145 -0.0449
 4293W        W35509  11.351  21.700   1.474  0.1134 -0.1238 -0.0862
 4294W        W35510   1.358  14.500   1.136 -0.1552  0.3956  0.3420
 4295W        W35511   7.368   8.689   8.039 -0.0385  0.2287  0.0919
 4296W        W35512   1.687   9.125   9.569  0.0317 -0.0953 -0.1410
 4297W        W35513   8.478  11.438  10.312  0.2062  0.3495 -0.1085
 4298W        W35514  22.513   5.147   0.470  0.2523 -0.1282  0.2279
 4299W        W35515  20.003   4.362   9.605  0.0561  0.2515 -0.2323
 4300W        W35516   9.018  16.041   8.113 -0.1470 -0.0280 -0.0684
 4301W        W35517  13.939   6.850   1.870  0.0931  0.1795 -0.0277
 4302W        W35518   8.254  18.097   2.609  0.1350 -0.0691 -0.1621
 4303W        W35519  19.971   8.687   3.213 -0.2037  0.0956  0.3808
 4304W        W35520   3.584  14.380   0.225  0.0908 -0.0501 -0.2322
 4305W        W35521  15.982  14.502   7.729 -0.0586  0.2173 -0.1992
 4306W        W35522   0.058  22.027   2.656  0.0629  0.0216 -0.0815
 4307W        W35523   0.102  13.175   8.774 -0.0799  0.2335  0.1043
 4308W        W35524  18.841  10.131   0.124 -0.0873 -0.0043  0.1467
 4309W        W35525  24.882  10.287   9.884 -0.0549 -0.0339  0.0022
 4310W        W35526   1.890  14.932   1.881 -0.0680  0.1027  0.0276
 4311W        W35527   9.181  18.339   8.019  0.0983 -0.1632  0.4761
 4312W        W35528  21.675  20.385   0.868 -0.1707 -0.1936  0.1630
 4313W        W35529   8.335  11.001   8.099 -0.0831 -0.0161  0.1581
 4314W        W35530  20.976  23.221   1.594 -0.1328 -0.1958 -0.2341
 4315W        W35531  18.363  18.677  10.367  0.1540  0.2946 -0.0257
 4316W        W35532  26.778   5.163   9.723  0.3266 -0.0689  0.0053
 4317W        W35533  11.552  13.392   1.979 -0.1981 -0.3718  0.0073
 4318W        W35534  20.906  18.781   9.468 -0.0897 -0.3058  0.1420
 4319W        W35535  11.351  13.777   0.366  0.2841 -0.1548  0.0775
 4320W        W35536   3.661   6.357   9.520  0.0852 -0.0652  0.2041
 4321W        W35537  21.467   4.426   8.439 -0.1317 -0.0464 -0.1256
 4322W        W35538  23.802  19.603  10.448 -0.0936  0.0726  0.2671
 4323W        W35539  24.730  10.395   8.220 -0.2183  0.0344 -0.1702
 4324W        W35540  16.728  13.647   1.405 -0.1610 -0.0364  0.1642
 4325W        W35541  21.464   5.422   9.346  0.0285 -0.0280  0.0349
 4326W        W35542  23.691  22.192   7.469  0.1460  0.2813 -0.1679
 4327W        W35543  22.474  10.088   2.854  0.1265  0.0886 -0.3223
 4328W        W35544  17.709  14.637   1.777 -0.2791 -0.1761 -0.1889
 4329W        W35545  19.449  13.546   7.047  0.1648 -0.1758 -0.0711
 4330W        W35546  20.420  26.098   8.216  0.3039  0.1509  0.2776
 4331W        W35547   9.507  21.421   2.365  0.0378  0.3209 -0.2323
 4332W        W35548  20.066   8.399   9.341  0.0221 -0.2338  0.1510
 4333W        W35549  17.773   3.599  10.342 -0.1895 -0.0189  0.0276
 4334W        W35550  18.296   4.226   8.379  0.3045  0.2000 -0.1541
 4335W        W35551  27.566  13.581   0.506  0.2787  0.0818 -0.0363
 4336W        W35552  25.203  11.268   0.340  0.1424  0.1593  0.3781
 4337W        W35553  25.733   2.946  10.342 -0.2832 -0.1012 -0.0800
 4338W        W35554   4.524  14.144   2.384  0.0797 -0.1974 -0.2452
 4339W        W35555  12.297  26.627   9.763 -0.1741 -0.0754  0.0032
 4340W        W35556  21.230  13.292   9.407 -0.0338  0.1624 -0.2572
 4341W        W35557   5.274  25.048   8.187  0.2174  0.1369  0.1021
 4342W        W35558   4.688   4.705   3.060  0.0488  0.1775  0.1385
 4343W        W35559  21.894   9.848  10.150  0.0477  0.1258 -0.0455
 4344W        W35560   1.898   7.398   3.806  0.5712  0.2532  0.1779
 4345W        W35561   4.361  11.530   2.651 -0.2645  0.1794  0.2177
 4346W        W35562   3.012  13.528   2.687 -0.1339 -0.2837  0.2307
 4347W        W35563   8.216  18.218   7.791  0.0492 -0.0095 -0.0044
 4348W        W35564  18.071   2.453   9.912 -0.1500  0.0418  0.3095
 4349W        W35565  21.913  10.754   2.994 -0.0624 -0.2221  0.0041
 4350W        W35566   1.400   1.360   7.860 -0.0596 -0.4303  0.0851
 4351W        W35567   2.094  21.024   8.788  0.0464 -0.0539  0.0835
 4352W        W35568  14.688   4.846  10.280  0.1070 -0.1657  0.0092
 4353W        W35569   3.743   4.642   3.914  0.1358  0.0471  0.0239
 4354W        W35570   9.816  16.407   9.609 -0.0108  0.1236  0.2334
 4355W        W35571  23.684  15.133   7.663  0.1308 -0.0577 -0.2397
 4356W        W35572  20.094  24.764   1.668  0.1277  0.1347  0.1832
 4357W        W35573   1.699  24.477   9.260 -0.2506 -0.1491  0.0652
 4358W        W35574   0.124   0.845   3.321  0.2911 -0.0398  0.3084
 4359W        W35575  22.784  18.538   8.921 -0.0939 -0.1093  0.2086
 4360W        W35576  14.799  14.371   2.365  0.0588 -0.1950  0.1931
 4361W        W35577  17.694  10.994   0.651  0.0913 -0.2369  0.2572
 4362W        W35578  18.167  20.863   3.481 -0.0847  0.1989 -0.4796
 4363W        W35579  20.853  27.444   1.369  0.0719  0.1397 -0.3490
 4364W        W35580  26.749   8.654   4.129 -0.0062 -0.0000 -0.0496
 4365W        W35581   0.534  11.593   1.850 -0.0790  0.0555 -0.0555
 4366W        W35582  27.012   8.878   3.047  0.5590 -0.2275  0.0261
 4367W        W35583  14.702  19.196   9.862 -0.2334 -0.0434  0.0202
 4368W        W35584   5.391   1.287   1.669 -0.3398  0.2046 -0.0774
 4369W        W35585  18.840  13.233   8.152 -0.1191  0.0938 -0.1672
 4370W        W35586  20.089   0.496   1.931  0.0240 -0.1546  0.1156
 4371W        W35587  11.681  13.349   9.015  0.1713  0.0160 -0.1862
 4372W        W35588  16.913  25.920   2.038  0.0828  0.0402  0.4582
 4373W        W35589  17.377  14.977   8.783  0.2811  0.0621  0.0793
 4374W        W35590  26.033  17.832   1.871 -0.1448 -0.2339 -0.0853
 4375W        W35591  18.752  18.962   2.540  0.1591 -0.2353 -0.0259
 4376W        W35592  17.499  18.900   2.717  0.1226 -0.0237  0.0612
 4377W        W35593  23.821  19.185   9.027  0.0997  0.0328  0.0841
 4378W        W35594   0.943  19.236   2.598  0.1207  0.0040  0.0787
 4379W        W35595  21.822  14.473   1.494 -0.0166  0.1393  0.2160
 4380W        W35596   8.186   1.821  10.532  0.1732  0.0018  0.0031
 4381W        W35597  26.970  17.734   9.388  0.1077  0.2717 -0.0071
 4382W        W35598   0.256   2.497   8.207  0.2752 -0.0105 -0.0138
 4383W        W35599   5.944  18.195   0.180 -0.2208 -0.0572  0.0012
 4384W        W35600   5.389  25.439   8.548  0.1299 -0.0737 -0.1295
 4385W        W35601   5.572  16.344   7.945  0.0036 -0.1483 -0.3932
 4386W        W35602  23.901  18.672   2.924 -0.2235  0.3870  0.0219
 4387W        W35603  21.913  23.829   0.865 -0.0453 -0.2020 -0.2313
 4388W        W35604  24.859   7.368   0.266 -0.0455  0.0649  0.0611
 4389W        W35605  22.146   4.449   0.101 -0.2550  0.0685 -0.2193
 4390W        W35606  11.782   1.957   9.776 -0.3163 -0.0388 -0.0688
 4391W        W35607   9.401  13.057   7.936  0.2562  0.2238  0.0106
 4392W        W35608  24.189   9.665   9.433  0.0595  0.1216  0.0227
 4393W        W35609  26.465   6.211   9.282 -0.0158 -0.0681 -0.0363
 4394W        W35610   0.203  16.085   8.878 -0.0581  0.1590 -0.0794
 4395W        W35611  14.487  27.059   4.021  0.0361  0.1625  0.0584
 4396W        W35612   0.255  27.485   8.381  0.0874 -0.1229  0.1322
 4397W        W35613   7.981  20.603   2.629  0.2027 -0.1231 -0.1460
 4398W        W35614   8.796  11.671   9.905  0.0440  0.0657  0.0409
 4399W        W35615   1.954   4.643   3.121 -0.2416 -0.2141  0.0299
 4400W        W35616  23.354  18.308   1.252 -0.1236  0.1103  0.1319
 4401W        W35617  11.735   0.321   0.994  0.3038 -0.1326 -0.1248
 4402W        W35618   5.765  10.357   9.541 -0.1682  0.0504 -0.1199
 4403W        W35619   1.923  22.514   9.166  0.1912  0.0501  0.3385
 4404W        W35620   7.184  17.353   3.219  0.0932  0.5839  0.2551
 4405W        W35621  21.693  22.669   9.741 -0.0795  0.0183 -0.1363
 4406W        W35622  20.629   5.914   9.913  0.1299 -0.1947  0.1657
 4407W        W35623  18.001   8.780   8.316  0.0457 -0.0683 -0.0306
 4408W        W35624  21.280  22.019   7.922 -0.2570  0.0198  0.0519
 4409W        W35625  14.379   8.155   9.189  0.0548 -0.1928 -0.0454
 4410W        W35626   1.687   7.094   9.349 -0.2142  0.2468 -0.2380
 4411W        W35627  23.025  23.230   9.455  0.2705  0.1287 -0.0703
 4412W        W35628   5.143   5.805   1.756 -0.2094  0.0580 -0.4830
 4413W        W35629   2.939  27.502   2.032  0.2414 -0.1298 -0.0167
 4414W        W35630  15.850  24.897   2.369  0.2310 -0.0847  0.1410
 4415W        W35631   5.165  16.171   3.159  0.0386  0.1193 -0.1289
 4416W        W35632  15.409   6.572   0.273  0.0834  0.0490 -0.0731
 4417W        W35633  26.937   6.664   0.785 -0.1196 -0.1431  0.0018
 4418W        W35634  17.359  13.777   0.625  0.1926 -0.2692  0.1819
 4419W        W35635  17.311   9.533   8.377 -0.1561  0.1173 -0.0728
 4420W        W35636   0.536   4.193  10.319 -0.2368  0.0667  0.1547
 4421W        W35637  12.293  18.985   0.475 -0.1444 -0.0057  0.1402
 4422W        W35638  11.993  20.757   9.551  0.3065 -0.2632 -0.2013
 4423W        W35639   3.255  14.676  10.505 -0.2921  0.2111 -0.2023
 4424W        W35640  22.403  23.109  10.316  0.1576  0.0935 -0.1214
 4425W        W35641  18.738  26.940   1.746  0.0442 -0.0262  0.0205
 4426W        W35642   6.956   6.456   8.765  0.1199  0.0710  0.1660
 4427W        W35643  19.518  11.521   8.502  0.2088  0.2271  0.1621
 4428W        W35644  16.298   2.423   3.381 -0.2902  0.2936 -0.1404
 4429W        W35645  19.797  11.285   9.945 -0.0596 -0.1243  0.1343
 4430W        W35646   9.186  14.553   3.067 -0.1686 -0.1221 -0.2166
 4431W        W35647  10.555  14.898   8.748  0.0096 -0.2195  0.0920
 4432W        W35648  18.694  17.498   1.599  0.0715  0.2341  0.0512
 4433W        W35649  22.056   6.676   1.052  0.3627  0.4202 -0.1859
 4434W        W35650  19.555   6.209   2.537  0.4272 -0.0234 -0.1777
 4435W        W35651  14.424  23.304  10.321 -0.1781 -0.0800  0.1035
 4436W        W35652   8.217   6.643   8.975  0.5124 -0.4751  0.0373
 4437W        W35653  21.599  16.575   1.591 -0.0024 -0.3018  0.1883
 4438W        W35654  19.020  26.399   9.734  0.0407 -0.1386  0.1152
 4439W        W35655  22.885  11.854   2.675  0.1532 -0.1698  0.0396
 4440W        W35656  20.966  19.734   1.884  0.0618 -0.0583 -0.0802
 4441W        W35657  22.048  25.017   2.369 -0.0484  0.1016 -0.0749
 4442W        W35658  17.410  25.824   1.524  0.2351  0.2973 -0.1345
 4443W        W35659  14.233  20.561   1.326 -0.1198 -0.1875 -0.0120
 4444W        W35660  11.929   7.209   0.490 -0.0044 -0.0687  0.4257
 4445W        W35661  27.276  12.539   7.886 -0.0607  0.1206  0.1556
 4446W        W35662  25.378  20.054   3.713  0.0789  0.4127  0.0317
 4447W        W35663   1.698   2.966   2.564 -0.2832  0.2789 -0.1830
 4448W        W35664  24.516  24.846   2.176 -0.0170 -0.0820  0.0076
 4449W        W35665  11.454   2.766   1.722  0.0593 -0.1645 -0.0319
 4450W        W35666   4.153  11.964   1.979  0.2894 -0.1213 -0.0858
 4451W        W35667   6.247   3.133   2.101 -0.0800 -0.0716  0.0377
 4452W        W35668   4.589  17.323   1.229 -0.1377  0.0077  0.2604
 4453W        W35669   8.728  18.456   8.907 -0.0275 -0.1370 -0.0315
 4454W        W35670  23.495  13.808   8.524 -0.1570  0.0353 -0.0354
 4455W        W35671  16.593   9.172  10.455  0.1268 -0.1981  0.1306
 4456W        W35672  18.915  15.536   9.011  0.1592 -0.0813 -0.1081
 4457W        W35673   4.246   6.342   8.047 -0.4584  0.1678  0.0578
 4458W        W35674   2.768   9.119   9.601  0.1723  0.1475 -0.0399
 4459W        W35675  11.200   8.697   2.846 -0.1379  0.1189  0.1273
 4460W        W35676  11.660  12.340   0.678  0.0162 -0.1460 -0.2451
 4461W        W35677  17.743  11.256  10.261  0.0980 -0.2275  0.0359
 4462W        W35678   0.053  21.658   8.765  0.0938  0.0113 -0.3198
 4463W        W35679  20.234   6.244   7.808  0.2201 -0.0308 -0.2277
 4464W        W35680   4.200  11.428   8.553  0.1221  0.1277  0.2432
 4465W        W35681   3.902  13.164   8.965  0.0763 -0.0407 -0.1408
 4466W        W35682  22.638  27.084   8.726 -0.1528 -0.0405 -0.2041
 4467W        W35683  27.049   8.419   3.164  0.0608  0.2094 -0.0058
 4468W        W35684  19.917   8.616   0.382 -0.2854  0.2480 -0.1778
 4469W        W35685  12.701  24.944   1.106  0.3641  0.1695 -0.0199
 4470W        W35686  27.446  27.584   2.986 -0.3824  0.1735  0.0466
 4471W        W35687   5.502  19.560  10.126 -0.2630  0.0335  0.0234
 4472W        W35688   9.722  23.786   2.211  0.1157 -0.2405  0.2131
 4473W        W35689  23.525  24.133  10.397  0.2822 -0.0022 -0.2468
 4474W        W35690  17.329   8.559   8.259 -0.1162 -0.0301 -0.1113
 4475W        W35691  11.262  24.534   7.694 -0.0977 -0.1666  0.0781
 4476W        W35692   2.069  24.401   9.982 -0.0347 -0.0794 -0.1120
 4477W        W35693  14.936   2.274   9.925  0.2594 -0.2826  0.0292
 4478W        W35694  16.378   9.333   9.581  0.1233 -0.1487 -0.4819
 4479W        W35695  26.118   4.507   2.028 -0.0912  0.1406 -0.0324
 4480W        W35696  20.979   4.918   0.661  0.1861 -0.2054 -0.0572
 4481W        W35697  22.428   7.336   9.498 -0.0469 -0.1127  0.0512
 4482W        W35698  14.650  15.665   9.078 -0.0926  0.1227  0.0465
 4483W        W35699  25.959  15.972   0.066 -0.1631 -0.2467 -0.0131
 4484W        W35700  27.084   3.268   0.588 -0.1743 -0.1065 -0.3222
 4485W        W35701  17.482  27.035   8.251  0.0421 -0.3219 -0.2159
 4486W        W35702   0.704  12.639   9.635  0.0876 -0.0033 -0.1865
 4487W        W35703   3.707  13.741   1.721 -0.1640 -0.1913 -0.0214
 4488W        W35704   5.932   9.245   2.522 -0.2042  0.0358  0.2027
 4489W        W35705  14.526  17.258   3.695 -0.0508  0.1399  0.1245
 4490W        W35706  10.854  24.072  10.502  0.1794  0.2423 -0.0205
 4491W        W35707  17.285  22.531   7.930  0.0315 -0.0906  0.2679
 4492W        W35708  20.390  10.193   9.327  0.1416 -0.0079  0.2458
 4493W        W35709  12.701  13.765   8.404 -0.0596  0.2380  0.3892
 4494W        W35710  19.642  19.454   0.932 -0.0338  0.2784 -0.2091
 4495W        W35711  19.900   5.285   0.888 -0.0223 -0.4394 -0.2537
 4496W        W35712   5.999  17.569   0.109 -0.1734 -0.2970 -0.0161
 4497W        W35713   5.856  26.975   3.131  0.0374 -0.3158 -0.0028
 4498W        W35714   1.423  21.076   0.004  0.1958  0.1845  0.0336
 4499W        W35715   6.620  10.675   7.757  0.3620  0.1787 -0.0656
 4500W        W35716  25.481  24.702   6.946 -0.0871 -0.0687 -0.0790
 4501W        W35717  14.818   4.994   1.057 -0.2134  0.2809  0.2604
 4502W        W35718  12.562  21.511   8.586  0.3898  0.0218  0.0653
 4503W        W35719  25.663   3.445   1.144 -0.1582  0.2563 -0.1129
 4504W        W35720  22.934  22.132   8.596 -0.1471 -0.0793 -0.0326
 4505W        W35721  25.529  19.601   8.063  0.4992  0.2875 -0.0164
 4506W        W35722  19.958  14.518   1.962 -0.0465 -0.1794 -0.0392
 4507W        W35723  12.247   0.437   8.796  0.1589 -0.1724  0.2642
 4508W        W35724   2.555  13.847   9.465  0.3349  0.2661  0.1050
 4509W        W35725  20.834  27.346   0.139  0.1691  0.0617  0.4336
 4510W        W35726   2.034   3.451   8.986 -0.3517  0.0394 -0.2130
 4511W        W35727   0.361  27.253   7.554  0.0290  0.1086  0.1118
 4512W        W35728  10.305  13.813   3.312  0.2324  0.4155  0.1711
 4513W        W35729  20.925   7.087  10.183  0.3163 -0.1595  0.0905
 4514W        W35730  23.859  22.075   3.637 -0.0838  0.2958  0.2960
 4515W        W35731  24.359  19.720  10.352  0.2043  0.1615 -0.0216
 4516W        W35732  12.615  22.913   2.162  0.2450  0.1475  0.0255
 4517W        W35733  24.082  16.168   2.811  0.2068  0.0970  0.1854
 4518W        W35734  10.654   1.632   8.630 -0.0591  0.1859  0.1499
 4519W        W35735  24.209  10.322   0.327 -0.1318 -0.1859 -0.0935
 4520W        W35736   1.448   4.242   1.596 -0.0011  0.0786  0.1160
 4521W        W35737  24.930   5.414   0.625  0.1459  0.0636  0.1365
 4522W        W35738  10.826   5.698   8.932  0.2429  0.2575  0.2248
 4523W        W35739  13.966   3.588   2.775 -0.1060  0.0562 -0.0362
 4524W        W35740  11.692  15.259   0.442 -0.3168  0.0198  0.3827
 4525W        W35741   2.387  12.299   1.207 -0.1736  0.1153  0.1784
 4526W        W35742  10.679  23.401   9.870 -0.0016 -0.2229  0.1507
 4527W        W35743   0.469  10.498   8.135  0.0275  0.0526  0.1115
 4528W        W35744   3.257  13.190   2.917 -0.0514  0.0592 -0.3572
 4529W        W35745  25.774  21.886   8.525 -0.0882  0.2447 -0.0074
 4530W        W35746  26.161   7.293  10.123 -0.1469 -0.0034  0.0337
 4531W        W35747  26.731  13.492   8.629 -0.1654  0.1214 -0.1152
 4532W        W35748   1.362   8.075   9.324 -0.1168  0.0574  0.2846
 4533W        W35749  26.144  13.050   9.616  0.0682  0.2620  0.0264
 4534W        W35750  19.062  10.685   8.324 -0.2060 -0.0932  0.3609
 4535W        W35751   5.493  18.748  10.041 -0.0949 -0.1212 -0.0553
 4536W        W35752  24.513   4.453   9.869 -0.0366 -0.2922 -0.2867
 4537W        W35753   5.351  25.012   0.622 -0.0706  0.0781 -0.2636
 4538W        W35754  24.937  26.893   9.448  0.3402 -0.0861  0.1323
 4539W        W35755  22.196  26.153   0.883 -0.0722  0.2287  0.3590
 4540W        W35756   8.717  27.431   3.006 -0.0093  0.3398  0.2959
 4541W        W35757  26.614   7.237  10.309  0.4018 -0.0500 -0.1378
 4542W        W35758  10.304   9.881   0.007  0.1263 -0.0339  0.0880
 4543W        W35759  11.844  24.800   9.528 -0.0639 -0.2983 -0.0582
 4544W        W35760   7.667   5.956   0.079  0.1331  0.3523 -0.0551
 4545W        W35761  13.718  13.523   3.091  0.0850  0.1974 -0.3730
 4546W        W35762  22.261  14.699   0.877 -0.0356 -0.1337  0.3333
 4547W        W35763  13.305   2.403   2.922  0.2721 -0.2676 -0.2934
 4548W        W35764   8.674   6.070   9.042  0.1481 -0.1777  0.4103
 4549W        W35765  26.968  15.701   7.677  0.0104 -0.1167 -0.1286
 4550W        W35766   9.060   6.139   1.765 -0.2912  0.0154  0.3007
 4551W        W35767  25.298  11.686   0.737  0.2606  0.1652  0.4212
 4552W        W35768  13.169  22.694   1.439  0.3358 -0.0857 -0.0721
 4553W        W35769  22.508  27.450   0.744  0.1408  0.0203  0.1131
 4554W        W35770  15.154  21.179   0.155 -0.2080  0.0748  0.0471
 4555W        W35771  20.462  10.935   3.333 -0.2248 -0.1508  0.3251
 4556W        W35772  11.191   6.257   2.346 -0.3729  0.0018 -0.0201
 4557W        W35773   7.398  14.043   2.945  0.0190 -0.1993  0.1393
 4558W        W35774   0.920  25.514   1.256 -0.3211  0.1356  0.0679
 4559W        W35775  24.350   2.694   0.044 -0.3363  0.3603  0.1042
 4560W        W35776   5.302   2.400   1.194 -0.1357 -0.0703 -0.3947
 4561W        W35777  16.898  26.162   1.507  0.1686 -0.1583  0.0682
 4562W        W35778   0.139  16.220   1.563 -0.2483 -0.1804  0.0055
 4563W        W35779  24.901  24.744   3.088 -0.0572  0.3475  0.0673
 4564W        W35780  21.105  10.144   0.697  0.0279  0.2736  0.0685
 4565W        W35781   0.618  25.932   2.182 -0.4042 -0.0441 -0.0666
 4566W        W35782   2.024  27.234   2.918  0.2478  0.1824  0.0877
 4567W        W35783   2.957   9.513   9.061  0.2810 -0.2386  0.0512
 4568W        W35784   3.642  24.659   3.445 -0.2783  0.1763  0.0872
 4569W        W35785   2.416   7.860   0.950 -0.2133  0.3053 -0.1344
 4570W        W35786   9.895  23.159   1.954  0.2010  0.0528 -0.0149
 4571W        W35787   4.492  23.791   3.231  0.1253  0.1422  0.0930
 4572W        W35788  18.851  13.388   7.692 -0.2008 -0.1462  0.1047
 4573W        W35789  23.164   5.918   8.583  0.1297 -0.1028 -0.0850
 4574W        W35790  25.245  21.433   9.116 -0.3147 -0.0154 -0.2613
 4575W        W35791  19.448  17.049   1.554 -0.0014 -0.5145 -0.0928
 4576W        W35792  20.977  10.044  10.116 -0.2229  0.4479  0.0055
 4577W        W35793   2.955  10.439   1.057  0.1625 -0.0108  0.2123
 4578W        W35794  27.311  10.431   8.683  0.3772 -0.3281 -0.0217
 4579W        W35795  19.072  20.634   3.758 -0.0295 -0.0670  0.1122
 4580W        W35796   2.389  10.697   0.165  0.1303  0.0758 -0.3635
 4581W        W35797  25.997  25.572   2.026 -0.1197  0.0770 -0.1593
 4582W        W35798  19.062  23.625  10.410 -0.3263 -0.0598 -0.1614
 4583W        W35799  24.420   7.438   1.066  0.1157  0.0542  0.6156
 4584W        W35800  24.761  24.682   0.062 -0.4957 -0.2240 -0.1883
 4585W        W35801  22.680  23.944   0.990 -0.0289  0.0133 -0.1537
 4586W        W35802  13.596  21.828   9.999  0.0366 -0.0950 -0.1365
 4587W        W35803  26.350  25.392   8.016  0.0981 -0.3713 -0.0191
 4588W        W35804  23.071  24.455   7.940 -0.1664  0.0596 -0.1792
 4589W        W35805  23.147  17.729   8.366  0.1790  0.2483  0.1138
 4590W        W35806  23.726  10.790   2.728 -0.2767 -0.1112 -0.0329
 4591W        W35807   5.995  12.399   7.625 -0.3252 -0.0268 -0.0187
 4592W        W35808  12.925  27.218   9.714  0.2321  0.0232 -0.0001
 4593W        W35809   0.213  27.205   9.380  0.0427  0.1075  0.0419
 4594W        W35810  15.776   4.107   2.018  0.1675  0.0612 -0.1549
 4595W        W35811  11.797  22.992   2.708 -0.0706  0.2283  0.0725
 4596W        W35812   7.794   3.203   8.941  0.0235 -0.0498 -0.0408
 4597W        W35813   6.207  25.655   1.881 -0.2222  0.1745  0.2046
 4598W        W35814  11.467  23.168   7.975  0.0423 -0.1264  0.2210
 4599W        W35815   9.248   2.057   1.834 -0.1589 -0.2823 -0.2456
 4600W        W35816  25.677  27.593   7.753  0.1058 -0.4767  0.0200
 4601W        W35817  25.192   7.805   0.266 -0.0661  0.2614  0.0371
 4602W        W35818   4.187  23.037   2.210 -0.0267 -0.0090  0.0458
 4603W        W35819  20.121  11.661   9.752 -0.0777  0.0635  0.2129
 4604W        W35820   8.683   8.490   0.197  0.0666 -0.1516 -0.1194
 4605W        W35821  11.875  25.346   2.843  0.0537 -0.2075  0.1123
 4606W        W35822   1.636   3.902   0.400  0.0516 -0.0690 -0.0293
 4607W        W35823  23.856   9.165   8.640  0.2115 -0.2656 -0.0215
 4608W        W35824   2.196   6.277   1.936  0.0755 -0.0112  0.0807
 4609W        W35825  19.941  22.860   8.553 -0.2546  0.1908 -0.0962
 4610W        W35826   7.775   3.153   9.943  0.2874  0.0845 -0.3339
 4611W        W35827   7.442  12.870   9.248  0.2727 -0.1646 -0.0137
 4612W        W35828   1.076  18.119   4.122 -0.1684  0.3470 -0.0271
 4613W        W35829  23.363  25.199   1.083  0.2701 -0.1979  0.2410
 4614W        W35830   4.160  14.732   0.898  0.3255  0.0659 -0.0916
 4615W        W35831  20.073  14.578   1.354  0.2998  0.2767 -0.0111
 4616W        W35832  27.526   5.895   8.192 -0.0249  0.3194 -0.2733
 4617W        W35833   9.248  19.996   0.607 -0.0048 -0.2388  0.2565
 4618W        W35834  11.838  24.579   8.912  0.1740 -0.2310  0.3713
 4619W        W35835  17.435  11.484   7.085 -0.1510  0.4591  0.0011
 4620W        W35836   0.408  16.867   8.447 -0.0577 -0.1265 -0.0451
 4621W        W35837  26.308  22.776   8.480 -0.0438 -0.0648 -0.1705
 4622W        W35838  21.502   0.239   9.145 -0.2214  0.0407 -0.0970
 4623W        W35839  18.916   1.601   0.347 -0.0268 -0.1507  0.3783
 4624W        W35840  23.376   6.317   0.694 -0.2318  0.1037  0.0513
 4625W        W35841  13.291  12.841   8.292  0.2303  0.0789  0.2288
 4626W        W35842   2.144  25.682   3.378  0.1828  0.2182  0.1192
 4627W        W35843   6.061   6.410   9.079 -0.0014  0.0840 -0.1151
 4628W        W35844   7.414   4.295   7.367  0.2633 -0.0489 -0.3011
 4629W        W35845   7.143  11.847   7.018  0.2125  0.1448  0.4798
 4630W        W35846   1.523   7.487   8.604  0.1354 -0.3218  0.2335
 4631W        W35847  27.438  17.050   3.445 -0.2308 -0.2619  0.3516
 4632W        W35848  14.425  15.150   1.297  0.0656 -0.0006  0.2232
 4633W        W35849  15.762  21.427   2.152 -0.3512 -0.0221  0.2454
 4634W        W35850  13.351   5.448   0.625 -0.1436  0.1321  0.2359
 4635W        W35851  18.818  18.582   0.746  0.1925  0.1679  0.0191
 4636W        W35852  18.508   1.203   1.732 -0.0439 -0.1505 -0.2217
 4637W        W35853  10.359   3.206   8.933  0.0184  0.0873 -0.1827
 4638W        W35854   9.821  25.576   2.024  0.0506  0.0644  0.0895
 4639W        W35855  12.587  17.683   9.228 -0.0539 -0.2054 -0.3225
 4640W        W35856   8.240  26.421   0.434 -0.0764  0.2775 -0.0366
 4641W        W35857   2.434  18.117   1.625  0.0972  0.0850  0.0162
 4642W        W35858   9.275  27.520   2.958 -0.0355 -0.2747 -0.1046
 4643W        W35859  16.803  11.439   2.637  0.0063 -0.1374  0.0014
 4644W        W35860  24.506  17.919   1.702  0.1961  0.4327  0.1657
 4645W        W35861   0.338  27.142   8.044  0.1680  0.0184 -0.1272
 4646W        W35862   1.526  22.314   1.007  0.0932  0.1433 -0.0513
 4647W        W35863   8.580   2.740   8.043 -0.1454  0.1006 -0.4963
 4648W        W35864  13.505  24.440   8.707 -0.1129 -0.0265 -0.0169
 4649W        W35865  26.894   1.899   2.522 -0.2966 -0.1179 -0.1415
 4650W        W35866  10.235   4.779   0.309 -0.0433 -0.0214 -0.2424
 4651W        W35867  14.037  15.887   8.586 -0.1612  0.0980 -0.0116
 4652W        W35868  15.270   7.929   9.866  0.0836 -0.0061  0.0863
 4653W        W35869  27.141   5.371   7.718 -0.0942  0.1266 -0.0005
 4654W        W35870   4.872   2.374   8.615 -0.0709 -0.1350 -0.3001
 4655W        W35871   9.087  15.615   8.503  0.0752 -0.3513  0.0052
 4656W        W35872  17.775   7.076   0.671  0.2312 -0.1815  0.0054
 4657W        W35873  10.237  15.737   2.553  0.2559  0.1662  0.1168
 4658W        W35874   5.960   8.494   7.617  0.0029  0.2171  0.0899
 4659W        W35875   0.238   9.614   1.189  0.2354  0.0874  0.1221
 4660W        W35876  18.334  14.286   1.465  0.2989 -0.3239  0.1293
 4661W        W35877  25.816   6.777   1.475  0.0037  0.0145  0.0281
 4662W        W35878   0.448  16.603   1.766 -0.2247  0.1208 -0.2660
 4663W        W35879   7.437   4.946   9.904 -0.3210  0.1402 -0.3280
 4664W        W35880  16.292   9.747  10.357  0.1426 -0.1369 -0.0184
 4665W        W35881   8.322  20.428   1.978 -0.1302 -0.3846 -0.0398
 4666W        W35882  23.012  14.595   0.206 -0.3247  0.1927  0.3112
 4667W        W35883  20.860   1.693   8.316 -0.2651  0.1152 -0.1198
 4668W        W35884  17.434  10.334  10.056  0.0911  0.0621  0.2818
 4669W        W35885   4.374  24.341   7.814  0.4339 -0.2028 -0.0060
 4670W        W35886   5.175   3.306   1.171  0.6377 -0.0627 -0.2014
 4671W        W35887  25.445  26.244  10.027  0.1153 -0.1182 -0.3321
 4672W        W35888   9.825  25.276   1.152 -0.3833 -0.0578  0.0391
 4673W        W35889  19.263  21.560   9.367  0.0404 -0.1916 -0.5613
 4674W        W35890   4.721  23.141   1.517  0.2071  0.2863 -0.0945
 4675W        W35891   2.794  19.588   1.775  0.2167  0.1342  0.1419
 4676W        W35892  12.490  15.210   7.535 -0.3074  0.1427  0.0491
 4677W        W35893  10.893  17.975   3.303 -0.0187  0.0022 -0.2212
 4678W        W35894  25.964  12.889   3.546  0.0860 -0.0339  0.1722
 4679W        W35895   2.121   3.684   0.363 -0.0154 -0.2958  0.0967
 4680W        W35896  23.138  18.632   0.900 -0.1751 -0.0295  0.0956
 4681W        W35897  22.141  11.152   1.753  0.1424 -0.0111  0.2556
 4682W        W35898  16.897  23.372   0.898 -0.1019  0.2810  0.1664
 4683W        W35899  12.668  22.061   8.409  0.2011 -0.1121  0.1526
 4684W        W35900  17.789   4.741   6.988 -0.0396  0.1116  0.1220
 4685W        W35901  16.261  18.732   0.273 -0.0385 -0.0422 -0.1623
 4686W        W35902  10.300  21.024  10.420 -0.0476  0.1973 -0.0842
 4687W        W35903   0.330  20.860   2.000  0.0439  0.4231 -0.2430
 4688W        W35904   2.342   1.187   9.143  0.1204  0.0389 -0.0347
 4689W        W35905   7.190  21.043   7.926  0.2990  0.1625  0.4608
 4690W        W35906   8.949  23.754   7.537  0.0433  0.0647 -0.0730
 4691W        W35907  16.015  20.115   1.148 -0.1900 -0.0081  0.0816
 4692W        W35908  22.675  26.872   9.707  0.1365  0.2378 -0.0389
 4693W        W35909  14.760   3.608   0.972  0.3270 -0.1031 -0.0724
 4694W        W35910   5.766  18.358   3.359 -0.0489 -0.0519  0.0192
 4695W        W35911  25.416   7.391   1.812  0.2672  0.2167 -0.0131
 4696W        W35912  12.348   0.505   9.934  0.3722  0.1500  0.1949
 4697W        W35913   2.631   5.460   0.570  0.1554 -0.2558 -0.2012
 4698W        W35914  26.747   4.399   2.102  0.0177  0.2344  0.1433
 4699W        W35915  22.383  11.237   8.124 -0.0501  0.3090 -0.2761
 4700W        W35916  26.743  10.394   0.105  0.3926  0.1700 -0.1684
 4701W        W35917   9.583   8.314   0.572 -0.2528 -0.1826 -0.1103
 4702W        W35918  19.484   1.234   1.716  0.0886  0.3669  0.0840
 4703W        W35919   6.047   7.694   7.121 -0.5838  0.1913  0.1119
 4704W        W35920   1.995  21.759   3.668 -0.1274 -0.0885  0.2096
 4705W        W35921  17.588  16.324   8.017  0.0920  0.2067 -0.0475
 4706W        W35922  27.295  26.304   2.131  0.0715 -0.2443 -0.0847
 4707W        W35923   1.680   5.126   1.258 -0.1403  0.0892  0.0784
 4708W        W35924  13.525   7.343   2.668  0.1237  0.0293  0.1192
 4709W        W35925  25.094  14.487   8.214 -0.1116  0.0852 -0.1619
 4710W        W35926  16.101  11.951   7.795 -0.3200  0.0382 -0.2373
 4711W        W35927  22.059   3.214   0.204 -0.1061 -0.0825  0.1932
 4712W        W35928  14.327   3.863   2.615 -0.0991 -0.0177  0.3138
 4713W        W35929  17.937   4.988   0.529  0.0283 -0.1334  0.1469
 4714W        W35930   6.748   1.875   0.170  0.2239 -0.0101 -0.0484
 4715W        W35931  19.863   6.891   3.052  0.0852 -0.0105 -0.0491
 4716W        W35932   7.496   2.134   2.520  0.1692  0.1661  0.2080
 4717W        W35933  13.844   0.337   1.363 -0.0069  0.0508 -0.1065
 4718W        W35934   2.787   2.131   8.167  0.3364  0.0985 -0.1064
 4719W        W35935   9.755  10.356   0.945  0.0105  0.2835  0.0943
 4720W        W35936   9.260  14.006   7.482  0.1006 -0.2114 -0.1322
 4721W        W35937  14.653  18.926   2.963  0.1086  0.4805  0.3413
 4722W        W35938  25.739  18.057   8.559  0.2838 -0.1148  0.3797
 4723W        W35939  27.457  18.489   0.736 -0.0551  0.0801 -0.0951
 4724W        W35940   6.038  13.921   2.853 -0.1296 -0.0965 -0.0342
 4725W        W35941  15.626  13.618   8.489  0.0801 -0.0665 -0.3212
 4726W        W35942  24.046  18.070   0.709 -0.1697 -0.3095 -0.1043
 4727W        W35943   2.257   3.533   0.820  0.0191 -0.0412 -0.1844
 4728W        W35944  17.224   2.817   9.609  0.1128  0.1531  0.1065
 4729W        W35945  23.989  21.689  10.455 -0.0520 -0.0883 -0.1012
 4730W        W35946  14.852  25.050   2.349 -0.0989  0.1004 -0.0942
 4731W        W35947   5.064   0.861   3.674 -0.2772  0.1060 -0.1866
 4732W        W35948   7.055  26.769   0.154 -0.1121  0.0457  0.1528
 4733W        W35949  20.895   6.114   1.171  0.1749 -0.1367 -0.1686
 4734W        W35950  18.926  15.189   8.572 -0.2188 -0.0544  0.0403
 4735W        W35951   1.926  16.449   8.993 -0.1509  0.2212 -0.0347
 4736W        W35952  13.603   6.770   2.622 -0.0032  0.0923  0.1556
 4737W        W35953   8.055  25.210   2.846 -0.1796  0.0294 -0.3592
 4738W        W35954   5.364  24.402   0.400  0.1672 -0.1252 -0.2305
 4739W        W35955   3.984  10.910   7.909 -0.0534 -0.2769  0.3428
 4740W        W35956  11.890  13.787   2.751 -0.1081  0.0073 -0.0636
 4741W        W35957  17.543  22.052   8.551 -0.0721  0.0865  0.0720
 4742W        W35958  13.070  14.176   8.285  0.0607 -0.0740 -0.1419
 4743W        W35959  17.082  26.869   1.175 -0.0365 -0.1000 -0.1799
 4744W        W35960   9.369  19.074   2.451  0.0844  0.1232 -0.2997
 4745W        W35961   4.964  14.784   7.961  0.1094 -0.0692  0.0005
 4746W        W35962   1.087  19.274   9.131  0.0599 -0.3257  0.0360
 4747W        W35963   8.976  16.537   1.233 -0.0898 -0.1144 -0.0638
 4748W        W35964   1.218   7.857   1.118 -0.0385 -0.0091  0.0101
 4749W        W35965  24.443   5.856   9.838 -0.0740  0.1221 -0.3072
 4750W        W35966  25.371   6.112   1.232 -0.0805 -0.1203  0.0074
 4751W        W35967  11.469  15.712   9.747 -0.2814 -0.1358  0.3119
 4752W        W35968   2.958  14.660   8.438 -0.1392 -0.1681 -0.2543
 4753W        W35969  24.607   7.697   1.999  0.0194  0.4742 -0.2649
 4754W        W35970  19.006  24.391   0.739  0.1450 -0.1150 -0.0538
 4755W        W35971   0.785  11.490   8.734  0.1476  0.1126  0.0396
 4756W        W35972  21.040   2.565   1.931 -0.1442  0.0663 -0.0633
 4757W        W35973  11.498  12.233  10.231  0.1361 -0.0225 -0.1933
 4758W        W35974   7.679  27.087   2.540  0.3179  0.3083  0.3846
 4759W        W35975  11.825  21.141   0.620 -0.0430  0.1387 -0.2146
 4760W        W35976   0.953  22.900   9.363  0.3408  0.1470  0.1405
 4761W        W35977  14.800  21.853   8.317 -0.3431  0.1292 -0.3498
 4762W        W35978  25.757   2.187   1.009 -0.1037  0.4364  0.0254
 4763W        W35979  21.368   0.234   8.614  0.0393  0.2823  0.0191
 4764W        W35980  15.033  26.651   1.658  0.0387 -0.3486 -0.0132
 4765W        W35981  17.986   8.309   8.511  0.1318  0.2378  0.0023
 4766W        W35982  10.901  15.028   2.230  0.0383  0.1997  0.1990
 4767W        W35983   9.467  23.798   8.655 -0.1366 -0.0174  0.1354
 4768W        W35984  12.977   5.041   8.814  0.4007  0.1452  0.0751
 4769W        W35985   2.285  15.085   0.894  0.0814 -0.0490 -0.4136
 4770W        W35986  20.694  25.634   2.743  0.2860  0.1155 -0.1537
 4771W        W35987   0.843  20.205   1.656  0.1073  0.0935 -0.1899
 4772W        W35988   3.595   3.032  10.217 -0.0015  0.1108 -0.0693
 4773W        W35989  26.462   2.736   0.876 -0.1438 -0.0634 -0.0559
 4774W        W35990  18.578  24.854   0.783 -0.0697 -0.3102  0.0413
 4775W        W35991   4.857   5.035   7.928  0.0554  0.0030 -0.0686
 4776W        W35992  18.126  10.432   1.295  0.0825  0.0063 -0.0278
 4777W        W35993   1.500  13.531  10.199  0.2751  0.1136 -0.1406
 4778W        W35994  27.276  26.811   1.297 -0.0678  0.2405  0.0744
 4779W        W35995   0.526  11.059   8.794  0.2347 -0.0642 -0.0373
 4780W        W35996  20.022  14.457   0.373  0.0657  0.2822  0.0967
 4781W        W35997   8.744  18.655   3.220  0.2074  0.2313 -0.4057
 4782W        W35998  14.272  10.779   8.292  0.1421  0.2153  0.3521
 4783W        W35999  13.109   9.055   2.094  0.2898  0.3377  0.1727
 4784W        W36000  23.164  20.408   1.617 -0.0302 -0.1231 -0.0346
 4785W        W36001  15.388   6.847   0.697  0.0743  0.1678  0.2767
 4786W        W36002  24.798  27.391   1.316  0.1803  0.0199  0.1466
 4787W        W36003  25.624   0.763   9.987 -0.3632  0.0830 -0.0694
 4788W        W36004  24.794  11.974   9.297 -0.2313 -0.1719  0.1255
 4789W        W36005  16.126  20.006   0.347 -0.0240  0.0707  0.2880
 4790W        W36006  19.874  17.169   0.785 -0.0232 -0.2148 -0.0594
 4791W        W36007  22.236   3.588   0.553 -0.3001 -0.0321 -0.0720
 4792W        W36008  18.309  11.499   7.848  0.1760  0.2944  0.1052
 4793W        W36009  14.771  14.934   2.276 -0.0358  0.0619 -0.2630
 4794W        W36010  20.001  16.485   0.072 -0.0980 -0.3798 -0.0815
 4795W        W36011  15.803  14.274   3.522  0.1916  0.3420  0.2380
 4796W        W36012  10.180  14.547   7.459  0.1600  0.1045  0.1116
 4797W        W36013  11.680  11.558   9.010  0.2585  0.0612  0.2988
 4798W        W36014   4.650   2.818   1.672  0.0205  0.1009 -0.0381
 4799W        W36015  20.935  17.490   7.824  0.1283 -0.0367  0.0474
 4800W        W36016  11.476   9.004   9.813 -0.2216  0.2213  0.1124
 4801W        W36017  26.946   7.366   0.929 -0.1121  0.0069 -0.0885
 4802W        W36018   8.383  12.049   8.920  0.2503 -0.0017 -0.2212
 4803W        W36019   2.734  10.891   7.855 -0.1264  0.0982 -0.2684
 4804W        W36020   6.470  23.107  10.327  0.0799  0.0473  0.5072
 4805W        W36021   8.223   3.287   9.731  0.1344 -0.1150  0.1384
 4806W        W36022   0.803   0.662  10.164 -0.3228  0.0606  0.0124
 4807W        W36023  16.774  22.245   2.042  0.0179  0.1694 -0.2094
 4808W        W36024  14.825  13.451   9.735 -0.0845 -0.0121 -0.0432
 4809W        W36025  27.184   9.990   2.003 -0.0444 -0.0833 -0.0761
 4810W        W36026   3.237  19.262   1.787 -0.0967  0.1250  0.0093
 4811W        W36027   0.325  12.023   8.247  0.5382  0.1592 -0.1393
 4812W        W36028  10.488   4.742   3.330  0.2552 -0.1723  0.1509
 4813W        W36029  23.160  25.859   0.039 -0.1341 -0.0226 -0.0618
 4814W        W36030   8.619   4.591  10.057 -0.1462 -0.2711  0.0847
 4815W        W36031  24.659  24.423   1.444 -0.4668  0.3338 -0.1154
 4816W        W36032   4.579   0.200   0.485  0.2298  0.0060  0.2724
 4817W        W36033  12.394  18.555   0.911  0.1094 -0.2207 -0.1956
 4818W        W36034  15.449   4.481   8.711 -0.0254 -0.2086  0.0368
 4819W        W36035  21.554  14.916  10.131  0.2562 -0.2168  0.0853
 4820W        W36036  17.341   6.159   7.896 -0.1750  0.2257  0.0435
 4821W        W36037  27.516  18.018  10.231 -0.1991 -0.1062  0.0561
 4822W        W36038  19.650   2.585   2.413  0.2811 -0.3000 -0.0543
 4823W        W36039  16.519  21.983   2.940 -0.0849  0.1657 -0.2624
 4824W        W36040  14.225   1.081   8.862  0.5925  0.0352 -0.1740
 4825W        W36041  11.662   3.741   1.868  0.1273  0.1161  0.2791
 4826W        W36042  13.603   3.100   8.430  0.1891  0.2690 -0.2202
 4827W        W36043  27.617  27.137   8.539  0.3406 -0.0455  0.0699
 4828W        W36044  15.574   6.618   2.124 -0.0759  0.0209  0.0973
 4829W        W36045  18.804  10.184   7.912  0.0088 -0.1139 -0.2875
 4830W        W36046   1.735  18.056   7.805 -0.0172  0.1376  0.3638
 4831W        W36047   4.180  26.531   2.611  0.1157 -0.5416 -0.2395
 4832W        W36048  23.740  10.441   2.230 -0.0827  0.1401 -0.0099
 4833W        W36049  17.409  25.043   2.009  0.2117  0.2685  0.3796
 4834W        W36050  14.900  26.622   2.775  0.0476  0.3530 -0.0235
 4835W        W36051  17.422  18.421   3.086 -0.0361 -0.1703 -0.0069
 4836W        W36052   8.146  20.450   8.213  0.2079  0.0900  0.2232
 4837W        W36053   6.378  15.144   1.579  0.1281 -0.0168  0.1140
 4838W        W36054   4.013  23.927   1.466 -0.0003  0.1072 -0.3562
 4839W        W36055   9.259  20.654   2.361 -0.0928  0.0408  0.1822
 4840W        W36056   8.914   2.990   2.588  0.4159 -0.0441  0.2293
 4841W        W36057   2.207  14.729   2.881 -0.1114  0.0276 -0.1777
 4842W        W36058  20.016  22.135   1.942  0.0395  0.0449  0.2022
 4843W        W36059   5.593  16.900   9.286  0.0876  0.0627  0.0407
 4844W        W36060  13.411  17.809   1.978 -0.0789  0.1023  0.1402
 4845W        W36061   3.330  23.314   1.177 -0.0099  0.1484 -0.2824
 4846W        W36062   3.274   6.412   1.374  0.0711  0.1740  0.0115
 4847W        W36063  19.118  23.499   8.770 -0.0712 -0.2194 -0.1581
 4848W        W36064  14.915  26.712   9.095 -0.0497  0.2831 -0.2940
 4849W        W36065  20.669  11.561   2.221 -0.1622  0.2730  0.1647
 4850W        W36066  23.466  17.012   7.061 -0.1531 -0.0215  0.1897
 4851W        W36067   3.798  26.658   0.604 -0.1848  0.0443 -0.0012
 4852W        W36068  15.252   4.064   8.931  0.0822 -0.3870 -0.2311
 4853W        W36069   8.338  19.740  10.254 -0.3167 -0.2770 -0.2227
 4854W        W36070  27.552  13.592  10.542 -0.3126  0.0357  0.3277
 4855W        W36071  14.687   5.850   3.059  0.0935  0.3766 -0.0810
 4856W        W36072  14.947   1.342   2.990 -0.2345 -0.5299 -0.1685
 4857W        W36073  11.054  24.470   2.538 -0.4961 -0.3970 -0.1198
 4858W        W36074   5.571  15.282   0.841 -0.0053 -0.2103 -0.1034
 4859W        W36075  21.407  10.259   1.427  0.0221  0.1956  0.2729
 4860W        W36076  22.660   3.168   9.511  0.4642 -0.1398  0.1119
 4861W        W36077  13.962  24.168   8.833 -0.2268  0.2469  0.4104
 4862W        W36078   4.126   6.691   9.422 -0.2043  0.0245  0.1849
 4863W        W36079   3.142   4.713   8.307 -0.4341 -0.1963  0.1350
 4864W        W36080   3.605  15.140   3.330 -0.1816  0.0364 -0.1788
 4865W        W36081  21.895   5.095   0.761 -0.3135  0.0458  0.2335
 4866W        W36082   8.771   1.212   0.128 -0.0139 -0.1795 -0.2450
 4867W        W36083   4.820  26.272   8.784  0.4058 -0.1618 -0.0815
 4868W        W36084  11.055  22.386   2.498 -0.1181  0.0968 -0.2646
 4869W        W36085  11.565  25.846   2.282 -0.0840  0.1410  0.0326
 4870W        W36086  18.280  12.932   0.171 -0.0925 -0.3529 -0.3756
 4871W        W36087  13.520   5.323   9.489  0.4019  0.1944  0.1147
 4872W        W36088  12.523   1.875   1.792 -0.1113  0.1946 -0.2155
 4873W        W36089  17.618   0.773   9.108 -0.1382  0.2196 -0.0398
 4874W        W36090  24.712  11.798   0.075 -0.5391 -0.0698  0.0522
 4875W        W36091  11.713   3.849  10.039 -0.1931 -0.0621  0.0313
 4876W        W36092   2.685   9.820   2.339  0.1805  0.1306 -0.0841
 4877W        W36093   6.224  23.884   9.829  0.0433 -0.0871 -0.2609
 4878W        W36094   8.205   4.092   0.531 -0.3307  0.0146 -0.1430
 4879W        W36095  22.166  20.786  10.253 -0.1341  0.0220 -0.1806
 4880W        W36096  19.841   1.427   8.789 -0.2353  0.1791 -0.1526
 4881W        W36097   1.671  11.942   2.322  0.2332  0.0881  0.1745
 4882W        W36098   1.475   8.968  10.036 -0.1254  0.1042 -0.0230
 4883W        W36099  27.296  19.304   8.743  0.0097 -0.1523  0.2041
 4884W        W36100  17.054   1.409   9.432 -0.0574  0.2432 -0.1139
 4885W        W36101   6.816  25.724   8.768  0.0198 -0.3902 -0.2692
 4886W        W36102  25.002  19.802   3.096 -0.2241 -0.2013 -0.0939
 4887W        W36103  10.802   4.837   8.238  0.0545 -0.1466 -0.4238
 4888W        W36104  20.398   7.920   0.968  0.5184  0.1205  0.0871
 4889W        W36105   7.356   2.842   7.247 -0.0675 -0.2618  0.0609
 4890W        W36106   0.686  15.330   3.416  0.1671  0.2784 -0.0781
 4891W        W36107   8.320   9.109   9.964  0.0295 -0.0229  0.1178
 4892W        W36108  19.251   4.942   7.755  0.0377 -0.0628  0.1045
 4893W        W36109   4.950  13.767   2.441 -0.2088 -0.1908  0.0568
 4894W        W36110  21.604  20.062   3.317  0.4353  0.1804 -0.2125
 4895W        W36111  11.020   2.829   1.324  0.1423  0.0611 -0.1678
 4896W        W36112  11.189  19.935   0.762  0.1826  0.0156  0.5491
 4897W        W36113  15.598  10.330   8.789 -0.0455 -0.0346  0.1218
 4898W        W36114  25.450  15.665   2.193  0.1958 -0.0060 -0.1906
 4899W        W36115  17.459  10.560   8.372 -0.1205 -0.0965 -0.0283
 4900W        W36116   6.667  26.776   1.404 -0.1285  0.1091 -0.0650
 4901W        W36117   4.780  27.330   3.783 -0.3117 -0.1363 -0.2314
 4902W        W36118  17.548  14.542   7.566 -0.0493 -0.1594 -0.1991
 4903W        W36119  13.507  21.568   2.269  0.2368 -0.2383 -0.2208
 4904W        W36120   0.892   7.205   9.763 -0.1943  0.0732 -0.0886
 4905W        W36121   5.861  15.178   1.781 -0.0274 -0.2742 -0.1202
 4906W        W36122   1.691   1.667   7.291  0.2481 -0.2184 -0.3090
 4907W        W36123   4.831   6.771   0.986  0.1242 -0.1817  0.0384
 4908W        W36124  21.257   8.678   2.303 -0.5138 -0.1823  0.2010
 4909W        W36125  25.703   3.426   1.719 -0.2062  0.3707 -0.0385
 4910W        W36126   5.539   3.394   1.469 -0.2354  0.1371  0.0299
 4911W        W36127  22.960  26.612   0.524  0.0069  0.2508 -0.1537
 4912W        W36128   4.403  10.588   1.638  0.0722 -0.0970 -0.2675
 4913W        W36129  25.464  15.155   1.622  0.2312  0.1572 -0.0615
 4914W        W36130  21.088   5.864   1.830 -0.2094  0.1690  0.2833
 4915W        W36131   5.577  12.252   7.352 -0.1400 -0.0170  0.2141
 4916W        W36132  16.534  17.367   8.116 -0.1086 -0.3212 -0.3340
 4917W        W36133  10.012  10.654   1.710 -0.2218 -0.1022 -0.1984
 4918W        W36134  23.108  23.462   1.517 -0.1232 -0.1797  0.3863
 4919W        W36135   4.402  21.055   3.781 -0.2938  0.4918  0.1840
 4920W        W36136  16.892  16.197   0.171  0.2371  0.0392  0.2875
 4921W        W36137  14.141  27.454   8.504 -0.4694  0.0156 -0.2109
 4922W        W36138  20.070   8.992   8.558 -0.1301  0.0344 -0.2366
 4923W        W36139   6.910  15.005   1.374 -0.0623  0.2428 -0.2002
 4924W        W36140  17.681  15.593   3.097 -0.1202 -0.1696 -0.1129
 4925W        W36141  25.478  23.799   9.270 -0.2159  0.1850 -0.1884
 4926W        W36142  17.226   3.940   2.971  0.0198 -0.1332  0.1531
 4927W        W36143   1.828  24.739   3.390  0.2498  0.2577  0.3002
 4928W        W36144   3.586  24.163   0.502 -0.1388  0.1317  0.2520
 4929W        W36145  21.496  23.136   9.867  0.0614 -0.1818 -0.2698
 4930W        W36146  23.975   7.606   1.195  0.2837  0.1055 -0.2693
 4931W        W36147  15.034   5.745   8.068  0.2723  0.0310  0.0850
 4932W        W36148  19.982  25.733   1.371  0.1653  0.1948  0.4741
 4933W        W36149  17.350  16.908   0.731  0.1308  0.0628 -0.1218
 4934W        W36150  12.018  16.532   7.845  0.2143  0.4368 -0.1679
 4935W        W36151   2.863  15.971   2.092 -0.0374 -0.0558 -0.0783
 4936W        W36152  13.300   4.762   2.499  0.2031 -0.2206  0.3481
 4937W        W36153   8.230  10.648   0.840 -0.3355 -0.2659  0.0681
 4938W        W36154   7.314   6.290  10.521  0.0805  0.2120  0.0585
 4939W        W36155   5.054   3.559   7.953  0.0196  0.6553 -0.2180
 4940W        W36156  19.721  19.442   2.347  0.0709 -0.0384 -0.0667
 4941W        W36157  11.326  13.203   1.018  0.3457  0.0556 -0.0877
 4942W        W36158  19.139  25.439   3.415 -0.0453 -0.0836  0.2999
 4943W        W36159   0.670  14.724   8.327  0.0278 -0.0777 -0.0491
 4944W        W36160  16.064   2.144   9.454 -0.3389  0.0247  0.2209
 4945W        W36161  26.401  27.060   8.975 -0.0240  0.2722 -0.3610
 4946W        W36162   9.188   3.529  10.544 -0.1676  0.2382  0.4228
 4947W        W36163  18.988  11.194   8.288  0.1795  0.0228 -0.0024
 4948W        W36164  16.477  23.483   0.614 -0.1248 -0.1583 -0.0234
 4949W        W36165   2.070  23.657   1.475  0.2669  0.0387 -0.1949
 4950W        W36166  25.433   5.430   8.773  0.0929 -0.1286  0.1355
 4951W        W36167   3.930   3.443   1.780 -0.1826 -0.0419 -0.0063
 4952W        W36168  19.082  10.914   2.597 -0.3352 -0.2080 -0.1240
 4953W        W36169  14.918  24.134   9.047 -0.1772  0.4479  0.0561
 4954W        W36170  20.016   2.413   0.790  0.1481 -0.1466 -0.0896
 4955W        W36171  18.200  26.717   0.512  0.0698 -0.2462  0.1579
 4956W        W36172  21.146  22.465   0.978  0.3417  0.1872 -0.3130
 4957W        W36173  19.684  13.896   1.976 -0.1225  0.2885 -0.1543
 4958W        W36174  24.859   1.769   3.488 -0.0874  0.3250 -0.1635
 4959W        W36175  27.603  23.660   8.675 -0.0960  0.4441 -0.0837
 4960W        W36176  10.527   4.212   7.566  0.2416 -0.1202  0.1541
 4961W        W36177   0.731  11.188   0.662  0.1655  0.4483 -0.1476
 4962W        W36178  23.814  26.442   2.879 -0.2651  0.0808  0.0285
 4963W        W36179  22.015  25.739   1.238 -0.0012 -0.2218  0.1939
 4964W        W36180  14.136  18.429   1.421 -0.0965  0.3508 -0.3411
 4965W        W36181   3.549   3.041   9.197  0.0712  0.0522  0.3467
 4966W        W36182  19.576  19.141   1.487 -0.1269 -0.0844 -0.3078
 4967W        W36183  10.876  16.589   9.152  0.2586 -0.1033  0.0890
 4968W        W36184   9.110   0.839   0.026 -0.2073 -0.0062 -0.2977
 4969W        W36185  17.779   2.235   8.608 -0.2867 -0.0085  0.3939
 4970W        W36186   7.066   1.121  10.076 -0.0603  0.0010  0.2202
 4971W        W36187  26.244   4.348   0.593  0.0728 -0.0228 -0.2088
 4972W        W36188  17.051  18.824   7.796 -0.0413  0.0549 -0.1944
 4973W        W36189  27.537   2.590   8.521  0.2058 -0.0059  0.1710
 4974W        W36190  10.044   7.730  10.010  0.2064  0.1998  0.0700
 4975W        W36191   3.101  11.493   3.441 -0.0514  0.3199 -0.4342
 4976W        W36192   2.613   5.510   9.853  0.3180  0.1819 -0.2203
 4977W        W36193  25.670  19.140   1.147  0.2404  0.0445 -0.0411
 4978W        W36194   2.327   5.778   3.114  0.1742  0.2870  0.3462
 4979W        W36195  27.394  16.240   1.083 -0.1409  0.1491 -0.0871
 4980W        W36196   3.204   5.972   9.086  0.0869  0.2127 -0.1629
 4981W        W36197  14.002   9.046   1.877 -0.0321 -0.1428 -0.1133
 4982W        W36198  25.453  16.400  10.486 -0.0071 -0.1902 -0.1750
 4983W        W36199  20.985   0.375   8.374 -0.2990 -0.1096  0.0888
 4984W        W36200  20.549   6.395  10.085 -0.2212 -0.0155 -0.0256
 4985W        W36201  16.287   1.725   0.925 -0.0730  0.0343  0.0714
 4986W        W36202  24.254  15.305   8.873 -0.1068 -0.0604 -0.1739
 4987W        W36203   0.433   4.349   0.850  0.0006  0.4229  0.0909
 4988W        W36204  24.330   2.514   7.812  0.0482  0.0143 -0.0158
 4989W        W36205   4.411   3.120   2.030  0.1666  0.2399  0.0739
 4990W        W36206   1.671  11.297  10.531 -0.1318 -0.1314  0.2833
 4991W        W36207  13.767   4.204  10.472  0.0897 -0.0124 -0.0448
 4992W        W36208  13.568  24.952   3.306  0.0928  0.0805 -0.1636
 4993W        W36209   3.662  27.556   2.419  0.1890 -0.1146  0.0564
 4994W        W36210   6.092  14.253   9.516  0.1443  0.0862  0.0971
 4995W        W36211   5.091   5.611   0.018  0.0321  0.1178  0.2846
 4996W        W36212  10.449   3.400  10.020  0.3616  0.1354  0.0138
 4997W        W36213  24.361  24.681   3.037 -0.1018  0.3157  0.0445
 4998W        W36214   3.904   4.823   7.593  0.0665 -0.0244 -0.0562
 4999W        W36215   7.361   1.241  10.501 -0.0248 -0.0739 -0.1098
 5000W        W36216  18.276  12.382   2.914  0.0660  0.0737 -0.1055
 5001W        W36217   5.583   5.433   0.843 -0.0143  0.2977 -0.0720
 5002W        W36218  21.498  16.403   2.033 -0.4430  0.2270 -0.1056
 5003W        W36219  23.815   8.783   2.144 -0.2161 -0.1381 -0.1141
 5004W        W36220   2.976   0.302   2.906  0.3232 -0.3516 -0.0970
 5005W        W36221  11.875  26.464   8.984 -0.2822 -0.1034  0.1135
 5006W        W36222   8.481  18.557   0.664 -0.0192  0.0877  0.1676
 5007W        W36223   8.037   0.304   9.196 -0.3034 -0.0321  0.1263
 5008W        W36224  19.973   7.025   8.533  0.3985  0.3154  0.0683
 5009W        W36225  24.897  20.894   2.228 -0.1200  0.2458  0.0088
 5010W        W36226  19.680   1.250   8.366  0.1752 -0.1257 -0.1900
 5011W        W36227  16.722  11.934   2.651 -0.3691 -0.1176 -0.4365
 5012W        W36228  18.220  18.902   8.296 -0.2464 -0.0747  0.1954
 5013W        W36229  14.353  21.794   2.266  0.4465 -0.0332  0.0677
 5014W        W36230  16.019   6.206   1.394  0.0565  0.0884  0.2577
 5015W        W36231  20.056  22.963   3.310 -0.3218 -0.1913  0.2740
 5016W        W36232  16.578   3.908   9.059  0.0691  0.0845  0.0848
 5017W        W36233   6.511  11.282  10.531  0.1189  0.0107  0.0163
 5018W        W36234   7.890  18.512   2.651  0.0156 -0.0958 -0.0473
 5019W        W36235  18.183  19.467   0.841  0.0172  0.0756 -0.0073
 5020W        W36236  23.051  12.542   8.990  0.0462 -0.1089 -0.3722
 5021W        W36237  11.188  19.470   0.022 -0.0498 -0.0551  0.2819
 5022W        W36238  16.050   4.013   8.263 -0.1365  0.2495 -0.0913
 5023W        W36239  20.742   4.262   1.420 -0.0555  0.0168 -0.0440
 5024W        W36240   7.386  17.390   8.561  0.2295  0.2736 -0.0385
 5025W        W36241   3.720  23.921   8.388 -0.0162 -0.3248 -0.2018
 5026W        W36242  18.708  26.842   1.196 -0.2050  0.0264  0.2528
 5027W        W36243  16.194  10.343   3.187 -0.0113 -0.0670  0.3287
 5028W        W36244   8.790  15.085   7.378  0.0482  0.1984 -0.3142
 5029W        W36245   8.481  20.704  10.230 -0.0525  0.2821 -0.0440
 5030W        W36246   4.533  12.898   3.013  0.1760  0.1954  0.0109
 5031W        W36247  11.788   5.172   1.882 -0.0012  0.2583  0.0659
 5032W        W36248  11.849  25.810   9.654 -0.0028  0.0935  0.1086
 5033W        W36249  15.758   7.945   0.242  0.0408 -0.1715  0.0664
 5034W        W36250  20.911  20.763   7.377 -0.1143 -0.3973  0.1691
 5035W        W36251   4.913  24.087  10.310  0.2631 -0.1523 -0.0515
 5036W        W36252  14.786   8.377   8.580 -0.3459 -0.1113 -0.0411
 5037W        W36253   3.298  23.931   1.780 -0.0946 -0.3349  0.0935
 5038W        W36254  15.685   2.642   0.557 -0.1746  0.1356  0.1072
 5039W        W36255  16.332  27.566   8.321  0.0235  0.3628 -0.5596
 5040W        W36256   5.093  12.173   9.197 -0.2384  0.1819  0.0608
 5041W        W36257   3.343  18.982   1.234 -0.2220 -0.1421  0.1808
 5042W        W36258  20.300  10.960   8.806  0.0380  0.1050  0.0583
 5043W        W36259   4.111  23.653   8.326 -0.0002 -0.1408  0.2363
 5044W        W36260  20.587  20.280   0.461 -0.0320  0.1849  0.0140
 5045W        W36261  24.480  24.411   0.650 -0.3376  0.0420  0.0090
 5046W        W36262  16.629  26.987   1.386 -0.5159 -0.3906  0.0512
 5047W        W36263  25.210   7.782   0.808 -0.2057 -0.3550 -0.0861
 5048W        W36264  14.496  25.540   3.867  0.5071  0.1571 -0.2127
 5049W        W36265  25.017   9.749   2.215  0.1588 -0.1149  0.0911
 5050W        W36266  19.479   6.290   0.045  0.5326  0.4178  0.1587
 5051W        W36267  11.586  13.610   8.487  0.1975 -0.0395  0.0677
 5052W        W36268  15.008  21.327  10.190  0.0790  0.1904  0.1744
 5053W        W36269  10.847   0.721  10.093  0.3084 -0.1465 -0.2382
 5054W        W36270  11.201  15.296   9.772 -0.0136  0.0604 -0.4262
 5055W        W36271  19.455  18.425   2.552  0.0650 -0.0951  0.3842
 5056W        W36272   0.358  21.047  10.049 -0.0143  0.1718 -0.2459
 5057W        W36273  13.713  15.968   9.461 -0.1925 -0.1534  0.0525
 5058W        W36274   6.724   6.668   9.285 -0.0209  0.0028 -0.0209
 5059W        W36275   6.459  22.672   1.597  0.0202  0.0068 -0.0590
 5060W        W36276   6.031   7.220   2.686 -0.0559  0.2573  0.3383
 5061W        W36277   3.271  15.143   9.041 -0.0454  0.0215 -0.1243
 5062W        W36278  19.110  15.511   2.605  0.2810  0.3286 -0.2168
 5063W        W36279  10.467  22.371   1.050  0.4856 -0.1514 -0.0894
 5064W        W36280  23.585  15.369   9.025  0.2606 -0.0620  0.0464
 5065W        W36281   2.847  19.256   8.685 -0.0331 -0.1091  0.2556
 5066W        W36282   6.166  10.054   3.247  0.0154  0.2833 -0.2348
 5067W        W36283   5.843  14.211   3.233 -0.1945 -0.1418  0.0170
 5068W        W36284  24.468  13.666   8.298  0.4179  0.0759  0.0645
 5069W        W36285   2.991   7.770   2.693 -0.0963  0.1049 -0.0012
 5070W        W36286  21.937   3.912   0.700 -0.2150  0.2599 -0.2567
 5071W        W36287  24.823  21.593  10.209  0.1619  0.2686 -0.2495
 5072W        W36288  24.388  25.647   8.828  0.1928 -0.1238  0.2044
 5073W        W36289   7.674  22.145   1.770 -0.4165 -0.3436 -0.1223
 5074W        W36290   3.683  13.888   2.995  0.2004 -0.2332  0.2733
 5075W        W36291   6.066  11.119   9.110 -0.0176  0.3171  0.4418
 5076W        W36292  22.019  18.401   9.833 -0.0279 -0.2559  0.0626
 5077W        W36293  18.327  24.291   2.123 -0.0026 -0.4154  0.3067
 5078W        W36294  21.497   1.923   2.994  0.2936 -0.0405 -0.4511
 5079W        W36295  15.894   0.022   0.886  0.3728  0.2944  0.0763
 5080W        W36296   6.914   1.548   3.512  0.1038 -0.1377 -0.3897
 5081W        W36297   7.118   8.031   1.922  0.0030 -0.3394  0.0494
 5082W        W36298   4.083  25.517   9.101  0.2682 -0.2275  0.1467
 5083W        W36299  20.276  12.946   9.468 -0.0671  0.0205  0.1508
 5084W        W36300   1.268  19.657   7.595 -0.4849  0.0304  0.0759
 5085W        W36301  21.882   6.171   1.065 -0.3037  0.3984  0.0402
 5086W        W36302  19.931   5.855   2.696  0.2167 -0.0413  0.4159
 5087W        W36303  24.748  15.741   8.362  0.1399 -0.0762  0.1910
 5088W        W36304   0.124  14.311   1.284 -0.0384 -0.3162  0.0682
 5089W        W36305  13.068  17.548   9.929  0.0673  0.0316  0.3289
 5090W        W36306  25.578   0.691   8.726  0.2123  0.0890  0.0754
 5091W        W36307  14.809  18.118   3.467  0.1854  0.1874 -0.0057
 5092W        W36308  24.165  13.067   1.831 -0.1264 -0.0668  0.2872
 5093W        W36309  19.420  15.202   3.675  0.0923  0.0415  0.0220
 5094W        W36310   7.180   6.918   3.690  0.3822 -0.1414  0.0009
 5095W        W36311   2.953   6.624   0.150  0.0057 -0.1159  0.1648
 5096W        W36312  25.825   9.351   1.090 -0.4891 -0.1880 -0.0280
 5097W        W36313  15.902  22.227  10.136  0.0828 -0.2568  0.2783
 5098W        W36314  15.180   2.689   9.556 -0.0329  0.0789 -0.2659
 5099W        W36315   9.351  17.507   1.306  0.3697 -0.4968 -0.0178
 5100W        W36316  23.291  13.376   3.576  0.0606 -0.0386 -0.0114
 5101W        W36317   7.998  16.447   0.812  0.2715  0.1034 -0.0421
 5102W        W36318  14.227  20.327   0.881 -0.1439 -0.1122 -0.0228
 5103W        W36319   6.891   2.957   2.210 -0.2697 -0.0001  0.1470
 5104W        W36320  22.144   6.100   3.923  0.0036  0.0785  0.1185
 5105W        W36321   1.175  17.501   8.264  0.0360 -0.2896  0.4106
 5106W        W36322  17.194   0.131   1.451  0.3265 -0.0159 -0.3774
 5107W        W36323  15.164  17.651   2.530  0.0731 -0.0914  0.1210
 5108W        W36324  10.840  26.019   9.661 -0.0480 -0.0991 -0.2426
 5109W        W36325  20.339   8.908  10.051  0.2033 -0.0438 -0.4778
 5110W        W36326  14.233  26.072   9.266 -0.0601 -0.1404  0.0714
 5111W        W36327  11.849  18.897   8.920  0.0629  0.2937 -0.0055
 5112W        W36328  27.247   2.277   3.240  0.0451 -0.0741  0.0064
 5113W        W36329  16.337   8.995   7.513  0.0598  0.1043 -0.2005
 5114W        W36330   1.791  11.789   6.919 -0.1724 -0.2985  0.1146
 5115W        W36331  23.821   8.708   0.387 -0.3963  0.0044 -0.0802
 5116W        W36332  23.221   1.647   1.415 -0.0312  0.1112 -0.0155
 5117W        W36333  17.760   6.285   2.160 -0.2583  0.0400  0.2862
 5118W        W36334  13.269  19.349  10.530 -0.2149  0.1921  0.1892
 5119W        W36335  16.060   8.826   7.104  0.1681 -0.2623 -0.1726
 5120W        W36336   8.458  15.421   2.274 -0.0819  0.1146  0.1118
 5121W        W36337   2.667   8.888   2.335 -0.1494  0.1031 -0.2881
 5122W        W36338  25.725  24.723   2.969  0.0259  0.0683 -0.1683
 5123W        W36339  26.689  13.843   9.625 -0.2140  0.2215 -0.1356
 5124W        W36340  13.247  23.963  10.341  0.0962 -0.0781  0.1485
 5125W        W36341  22.847  27.196   1.511 -0.0848 -0.2450  0.0336
 5126W        W36342  27.049   8.555   2.623  0.1197  0.0488 -0.0088
 5127W        W36343  20.646  23.104   8.872 -0.1721 -0.1241  0.0120
 5128W        W36344  10.638  12.015   3.109  0.1077  0.3799 -0.3505
 5129W        W36345  21.069  10.464   1.128  0.3047  0.1977  0.2604
 5130W        W36346   9.964   0.306   3.398 -0.2864  0.2567 -0.2683
 5131W        W36347  18.056  17.876   0.074  0.0013 -0.2047 -0.0299
 5132W        W36348  19.034  21.402   3.083  0.0382 -0.1125  0.2789
 5133W        W36349  14.250  16.319   2.374 -0.1167 -0.0361  0.2931
 5134W        W36350  25.594  25.798   8.176 -0.0784 -0.2102 -0.2408
 5135W        W36351  17.966  11.036   9.256 -0.0855  0.1555  0.1190
 5136W        W36352   1.516   4.978   9.025  0.1199 -0.0109 -0.3585
 5137W        W36353   3.423  23.415   3.672  0.0744 -0.1586 -0.1675
 5138W        W36354  18.175  13.721  10.071  0.1584  0.3063 -0.1657
 5139W        W36355  25.629   6.880   7.694  0.1764 -0.0162  0.0004
 5140W        W36356  14.450   9.094   9.135 -0.3137 -0.2432  0.0763
 5141W        W36357   9.267  18.696   3.278 -0.1768  0.0410  0.1891
 5142W        W36358  27.124   3.251   3.023 -0.0181  0.0706  0.1450
 5143W        W36359  21.695  14.723   0.067  0.0892  0.3290 -0.1648
 5144W        W36360   0.745   0.614   1.635 -0.1179  0.1611  0.2197
 5145W        W36361  25.639   5.997   0.261 -0.2489 -0.1115 -0.1376
 5146W        W36362   0.539  18.615   2.258 -0.0282  0.1735  0.1848
 5147W        W36363  16.366  11.696   9.850  0.1411  0.0036 -0.0451
 5148W        W36364  15.400  21.596   7.736  0.2031  0.1464  0.3483
 5149W        W36365  14.354  18.747   1.812  0.1917 -0.0278  0.0331
 5150W        W36366   3.192   4.414   8.783  0.1095 -0.0674 -0.2674
 5151W        W36367   3.655  18.230  10.115 -0.0741 -0.0486  0.3928
 5152W        W36368  10.249  26.317   1.016 -0.2308 -0.2974  0.3108
 5153W        W36369  24.934  18.926  10.129 -0.0127 -0.0560  0.0403
 5154W        W36370  16.486  13.176   7.000 -0.0541 -0.1169  0.0932
 5155W        W36371  14.997  15.598   8.470  0.1345  0.0910 -0.2151
 5156W        W36372  21.843  10.063   0.075 -0.0395 -0.1665  0.0408
 5157W        W36373   7.214  11.216   7.114 -0.0190  0.2293 -0.0118
 5158W        W36374  18.765  21.700   1.871  0.1773  0.2422 -0.2028
 5159W        W36375  16.942   5.899  10.246  0.0156  0.2677 -0.0423
 5160W        W36376  25.335  11.188   3.064 -0.4679  0.1848 -0.2031
 5161W        W36377  26.678  23.012   8.726 -0.1094  0.0064  0.2189
 5162W        W36378  22.638   1.396   2.644  0.2389  0.0305  0.0578
 5163W        W36379   5.830  12.118   8.090  0.2052  0.1585  0.2901
 5164W        W36380  11.947  13.073   1.986  0.3590 -0.0156 -0.1279
 5165W        W36381  19.626   7.462   2.365 -0.1457 -0.1504 -0.2082
 5166W        W36382  16.064  11.438   7.725  0.0410 -0.1071  0.2521
 5167W        W36383  20.316  15.707   7.428 -0.0095 -0.1081  0.1207
 5168W        W36384  23.654   3.390   1.007  0.0567 -0.1856  0.0347
 5169W        W36385   8.960   5.830   9.429  0.3101  0.0921  0.1324
 5170W        W36386  10.445  13.804   0.214 -0.3479  0.0715  0.1195
 5171W        W36387   3.759   1.769   2.896 -0.1538 -0.3682  0.2725
 5172W        W36388  13.314  16.768  10.539  0.0424 -0.2985 -0.2310
 5173W        W36389   5.199  11.814   0.883 -0.0118 -0.0562  0.1147
 5174W        W36390  17.299  18.562   1.548  0.2249  0.2482  0.0456
 5175W        W36391   3.585   5.334   9.543 -0.0507 -0.0065  0.0301
 5176W        W36392  11.521  27.056   0.878 -0.1140  0.1228 -0.0769
 5177W        W36393  20.497   3.791   8.162  0.0378 -0.0354 -0.0516
 5178W        W36394  16.636  17.934   9.868  0.1949 -0.1512 -0.5794
 5179W        W36395  15.859  21.917   0.000  0.3203 -0.3541 -0.0027
 5180W        W36396  26.223   4.860   9.305  0.2139  0.4935 -0.1700
 5181W        W36397   5.482   9.293   9.821  0.2887 -0.1353  0.0724
 5182W        W36398   6.868  13.643   9.004 -0.0701  0.0497  0.1033
 5183W        W36399  14.738  20.520   9.671  0.1463 -0.1544 -0.0246
 5184W        W36400   2.053   0.852   8.670  0.0209  0.0030  0.0314
 5185W        W36401  21.962  20.577   3.883 -0.1789 -0.2324 -0.0400
 5186W        W36402  12.557   6.948   2.490  0.2149 -0.3363 -0.2270
 5187W        W36403   7.676  14.449   0.409  0.2616  0.0798  0.2688
 5188W        W36404   9.226  16.025   2.146  0.0091  0.1789 -0.1668
 5189W        W36405  12.544  26.002   1.147 -0.1605  0.0996 -0.0283
 5190W        W36406  25.628  16.530  10.025 -0.2568  0.0169  0.3564
 5191W        W36407   7.423  12.865   0.720  0.2429 -0.2230  0.0002
 5192W        W36408   0.749   3.732   8.629  0.2537  0.2592 -0.4672
 5193W        W36409  27.006  18.382   0.949  0.0034 -0.1874  0.2160
 5194W        W36410  14.277   4.007  10.504  0.2405  0.0317  0.2862
 5195W        W36411   4.034   0.194   1.965 -0.0709  0.1936  0.1439
 5196W        W36412   8.070  23.829   1.151  0.1868  0.0162  0.0891
 5197W        W36413   4.915  18.598   8.434  0.0940 -0.0447 -0.1069
 5198W        W36414   9.329  13.811   2.052  0.0750 -0.2084  0.1502
 5199W        W36415   2.497   6.886   3.480  0.0466  0.3739 -0.1532
 5200W        W36416  20.245   0.718   9.042 -0.1592  0.1170  0.1754
 5201W        W36417  26.059  19.715   9.772 -0.2127 -0.1499 -0.0685
 5202W        W36418  11.776   1.370  10.277 -0.1008 -0.0018 -0.3428
 5203W        W36419  25.501  26.581   9.162 -0.2760 -0.1167 -0.0339
 5204W        W36420   8.994  27.584   0.364  0.0118 -0.2402  0.0290
 5205W        W36421  18.938  25.547  10.155 -0.0958 -0.3537  0.2221
 5206W        W36422   8.207  12.489   2.376 -0.1347 -0.0204  0.1177
 5207W        W36423  14.670   9.532   8.805  0.1864  0.0665  0.0692
 5208W        W36424  12.671   8.999  10.109  0.1574  0.0024  0.0268
 5209W        W36425  23.919  19.956   2.696  0.1784  0.3020  0.0406
 5210W        W36426   3.159  10.114   8.644  0.0764 -0.0496  0.1570
 5211W        W36427   7.359  21.366   2.874 -0.1964  0.0733 -0.0767
 5212W        W36428  12.010   0.468   3.204 -0.1535  0.0780  0.2294
 5213W        W36429   5.167  21.293   1.947  0.1152 -0.0591  0.0716
 5214W        W36430  10.313  19.920   1.908 -0.1987  0.1995  0.0984
 5215W        W36431   7.205   0.605   9.843 -0.0233 -0.0322 -0.0661
 5216W        W36432  12.418  13.599   9.538  0.2950  0.0139 -0.0743
 5217W        W36433   0.989  13.793   8.915  0.3299 -0.1378 -0.2752
 5218W        W36434  13.190   1.559   9.612 -0.4641 -0.0541 -0.1357
 5219W        W36435  20.399  26.995   0.218  0.0267  0.1872  0.1751
 5220W        W36436  14.077   0.077   1.723  0.2086 -0.1231 -0.0617
 5221W        W36437  26.025  23.313   9.744  0.0012 -0.0898 -0.2983
 5222W        W36438  12.756   5.133   2.214  0.1451  0.1626 -0.2802
 5223W        W36439   2.554  21.344   8.693  0.2524 -0.0033 -0.1319
 5224W        W36440  14.866  15.185  10.281  0.1447 -0.1153 -0.2450
 5225W        W36441   0.435  21.214   1.138 -0.0987  0.0368  0.1275
 5226W        W36442   1.874   9.033  10.398 -0.3382 -0.1573  0.1844
 5227W        W36443  18.035  18.139   8.726  0.0885  0.2467 -0.0126
 5228W        W36444  20.050  24.759  10.096 -0.0684 -0.0845 -0.2339
 5229W        W36445   1.872  19.149   9.843  0.0318 -0.0665  0.1048
 5230W        W36446   2.022   4.283   8.354  0.0742  0.3418  0.4433
 5231W        W36447  10.511   7.401   0.248 -0.1063  0.1102  0.0573
 5232W        W36448  20.086  25.927   1.933 -0.0391 -0.4359  0.3203
 5233W        W36449  16.962   8.874   7.992  0.1748  0.2882  0.0439
 5234W        W36450   4.110  15.965   0.828 -0.2218  0.1634  0.0111
 5235W        W36451   6.682   4.655   8.484  0.3606 -0.4061  0.1491
 5236W        W36452   3.047  25.584   0.921  0.1425  0.1977 -0.0979
 5237W        W36453   9.924  17.666   0.608  0.3347 -0.2473 -0.0835
 5238W        W36454   3.550  23.759   9.249  0.0938 -0.1578  0.2801
 5239W        W36455  21.416   2.979   3.916  0.0483  0.2100 -0.1286
 5240W        W36456  22.286  27.551   8.647  0.0875  0.3815  0.4844
 5241W        W36457  13.123  15.884   0.928  0.0892 -0.0770  0.3782
 5242W        W36458  14.484  26.502   9.160  0.0573  0.1812 -0.0807
 5243W        W36459   5.429  26.934   0.981  0.3124  0.1187 -0.2567
 5244W        W36460  11.135  26.936   3.054  0.2119 -0.2078  0.0848
 5245W        W36461  24.784  19.648   0.041 -0.0962 -0.1825  0.2238
 5246W        W36462  14.736   6.449   1.079 -0.1402  0.0674  0.0910
 5247W        W36463   2.382  11.351   2.220  0.1132 -0.0186  0.0138
 5248W        W36464   7.918  26.875   7.440  0.0101 -0.0024  0.4013
 5249W        W36465  16.597  24.271   0.746 -0.3279 -0.4156 -0.1279
 5250W        W36466   7.092  20.816   0.462 -0.1480 -0.0333  0.0896
 5251W        W36467  14.876  10.824  10.486  0.0872  0.1853 -0.2575
 5252W        W36468   2.244  23.412   3.367  0.0734  0.0637  0.0488
 5253W        W36469  16.878  16.682   3.535  0.1115  0.1116 -0.2470
 5254W        W36470  25.862  20.229   9.851  0.0117  0.2490 -0.0231
 5255W        W36471  22.102   9.687   0.355  0.0202 -0.4656  0.3438
 5256W        W36472  18.089  26.186   2.828 -0.1006  0.0710  0.0371
 5257W        W36473  16.988  12.411  10.087 -0.1318  0.0709 -0.0660
 5258W        W36474  18.995  19.035   9.405  0.1617  0.4385  0.2202
 5259W        W36475   7.614  12.162   1.720 -0.3060  0.1029 -0.1803
 5260W        W36476  17.411   4.065   2.197  0.0385 -0.2013  0.4451
 5261W        W36477  27.548  27.396   1.460  0.1207  0.2924  0.1821
 5262W        W36478  15.069  13.890   9.430  0.0824 -0.1448 -0.2422
 5263W        W36479  21.525  20.857   1.084  0.0829 -0.4303 -0.2998
 5264W        W36480  16.669  23.429   9.042  0.5173 -0.2412  0.3919
 5265W        W36481   4.354   2.190   1.400  0.0271 -0.1378 -0.0244
 5266W        W36482  15.772  17.652  10.185 -0.3771  0.0034 -0.0897
 5267W        W36483   2.293   5.591   8.912  0.0762 -0.0495 -0.1035
 5268W        W36484  26.450   6.841   9.924  0.0244  0.1594 -0.0097
 5269W        W36485  12.581   5.063   9.947  0.2698  0.1087 -0.0945
 5270W        W36486  16.238   0.978   2.864  0.1318  0.2420  0.0561
 5271W        W36487   1.564  25.396   2.665  0.4013 -0.0948  0.1133
 5272W        W36488  20.843  10.900   1.723 -0.0790 -0.0626  0.5146
 5273W        W36489   1.611  10.010   7.802 -0.2833  0.0710 -0.2144
 5274W        W36490  13.034  13.093   7.943 -0.1265  0.0979  0.0086
 5275W        W36491   0.374   2.167   7.894 -0.2775  0.2391  0.0365
 5276W        W36492  21.524  15.561   1.001 -0.0842 -0.0057  0.3270
 5277W        W36493  12.659  12.922   2.705  0.0367 -0.2992 -0.2892
 5278W        W36494  22.990  22.655   0.815  0.0150 -0.2146  0.0210
 5279W        W36495  26.133   1.363   8.761  0.0823  0.0275 -0.0626
 5280W        W36496   1.862  18.601   2.738 -0.0808 -0.2686  0.2746
 5281W        W36497  21.230   4.853   9.901  0.6244 -0.2433 -0.1629
 5282W        W36498  24.764   0.087  10.427  0.1049 -0.1671  0.4266
 5283W        W36499  16.067   7.496   0.064 -0.1793  0.1613  0.2853
 5284W        W36500  17.651   8.077   1.394 -0.1416 -0.2700  0.1652
 5285W        W36501  10.570  23.659  10.287  0.0138  0.0003 -0.1913
 5286W        W36502   8.514  25.285   9.902 -0.1964  0.2257  0.3422
 5287W        W36503   9.000   6.691   7.926  0.0375  0.0013 -0.0367
 5288W        W36504   6.135   2.874   0.028 -0.1075 -0.1760  0.0650
 5289W        W36505  17.037  24.936   3.049 -0.0621  0.1646 -0.3745
 5290W        W36506  12.444   0.040   3.859 -0.4492 -0.2299  0.4722
 5291W        W36507  18.358   4.276   2.947  0.1527 -0.1010 -0.1228
 5292W        W36508   4.939  17.673  10.073  0.0649  0.3146 -0.4376
 5293W        W36509  19.370  21.987   8.586  0.2347 -0.1160  0.1738
 5294W        W36510  19.504  14.420   2.232  0.0139 -0.0032 -0.1503
 5295W        W36511  19.459   3.161   9.749 -0.1757  0.0576  0.1141
 5296W        W36512   8.262  14.464   7.411  0.1326 -0.0743 -0.2062
 5297W        W36513   5.327   8.894   1.554 -0.1823 -0.0365 -0.0962
 5298W        W36514  13.107   0.460   3.362 -0.0635  0.0781  0.2952
 5299W        W36515   7.206  27.133   3.094 -0.3689  0.0095  0.4930
 5300W        W36516   7.306  27.607   7.726  0.0154  0.0751 -0.0994
 5301W        W36517  13.370   0.150   2.825  0.1693  0.0233 -0.0737
 5302W        W36518  26.602  23.601   7.513  0.0014  0.0797 -0.1366
 5303W        W36519  17.775  11.332   7.820 -0.2190 -0.1252  0.0627
 5304W        W36520  12.184   3.072   9.739  0.0428 -0.0765  0.2110
 5305W        W36521  15.734   7.429   2.979  0.0665  0.1451 -0.0082
 5306W        W36522  11.147   1.697   8.254  0.3027 -0.2145 -0.0142
 5307W        W36523  20.530   0.624   8.119 -0.3279  0.3620  0.1169
 5308W        W36524  11.907   2.566   9.618  0.0243  0.2445 -0.0771
 5309W        W36525   4.663  13.496   2.728  0.2233 -0.0360 -0.1036
 5310W        W36526   3.790  25.473  10.415 -0.0853  0.0935  0.2155
 5311W        W36527  18.389   1.255   9.356  0.0078  0.1977  0.3953
 5312W        W36528  11.825   7.759   0.929  0.1790 -0.1123  0.1847
 5313W        W36529   4.674  10.893   6.921  0.1574  0.0932  0.1158
 5314W        W36530  17.754   5.625   8.619  0.1477 -0.0642  0.1293
 5315W        W36531   7.887  25.094   9.062  0.0399  0.1229 -0.0670
 5316W        W36532   5.802  20.674   1.715 -0.2577  0.2873 -0.0630
 5317W        W36533  27.496  26.481   3.023  0.2299 -0.1024  0.2599
 5318W        W36534   1.073  25.172  10.071 -0.0734 -0.0309 -0.0964
 5319W        W36535  25.924   5.594   2.472  0.0379  0.2717 -0.4613
 5320W        W36536   0.835  20.443  10.255 -0.2579  0.0636 -0.2122
 5321W        W36537  15.005  19.223  10.291  0.1149  0.1388  0.0098
 5322W        W36538  17.072  23.392   8.586  0.3110 -0.0520  0.0216
 5323W        W36539   3.279  17.382   3.450  0.0669 -0.0323 -0.0188
 5324W        W36540  10.066   4.658   1.768  0.0052 -0.2913 -0.0865
 5325W        W36541  25.931   9.411   8.144 -0.2797 -0.1551  0.0988
 5326W        W36542   5.727  15.725   7.484 -0.3937 -0.3199 -0.0339
 5327W        W36543  12.328  26.283   3.522  0.0381  0.2492 -0.2781
 5328W        W36544  22.909   1.287   2.274 -0.2009 -0.2080 -0.0513
 5329W        W36545   1.614  10.904   0.460  0.3681  0.0879 -0.1185
 5330W        W36546   5.144  10.248   2.615 -0.1106  0.2058  0.0327
 5331W        W36547  27.115   3.422   2.011  0.2975 -0.4281  0.0580
 5332W        W36548  20.615  14.290   8.622 -0.1180 -0.4311 -0.2446
 5333W        W36549  24.910  25.069   9.594 -0.3694  0.0239 -0.1280
 5334W        W36550   2.805  27.391   8.297  0.2257 -0.1881 -0.1078
 5335W        W36551  16.656   3.395   1.267  0.1292 -0.2807 -0.0005
 5336W        W36552  16.283   0.825   3.418 -0.0925 -0.3436 -0.2557
 5337W        W36553  26.313   5.253   4.013  0.1153 -0.0574 -0.2440
 5338W        W36554  12.425  21.262   2.568  0.1083  0.0302 -0.2730
 5339W        W36555   0.131  17.537   3.272  0.1246 -0.0642  0.0316
 5340W        W36556  19.900  11.388   1.769 -0.0898  0.2998 -0.1003
 5341W        W36557  22.388  18.663   3.607  0.2974  0.1409  0.0716
 5342W        W36558   5.375  16.428   7.370  0.2499 -0.3203  0.1122
 5343W        W36559  18.603  21.101   3.116 -0.0286 -0.0287  0.2959
 5344W        W36560  17.532  18.998   8.493  0.0311  0.3155 -0.1376
 5345W        W36561  14.176  13.231   7.544  0.0885 -0.1290  0.0320
 5346W        W36562  25.949  26.764   7.957 -0.0442 -0.1243 -0.1513
 5347W        W36563  11.793   1.289   2.246  0.2060  0.0398 -0.0816
 5348W        W36564  21.234   0.454  10.098  0.0218 -0.1612 -0.1807
 5349W        W36565   4.438  14.645   8.073  0.2017 -0.0019 -0.1021
 5350W        W36566  15.306   4.752   1.411  0.1042  0.2144  0.2101
 5351W        W36567  21.711  10.900   1.720  0.0368  0.0114  0.0719
 5352W        W36568   8.532  26.662   0.840 -0.0695  0.0230 -0.1852
 5353W        W36569  26.416   2.594   0.357  0.1570  0.1594  0.0675
 5354W        W36570  25.572  26.781  10.016  0.1025  0.1253 -0.2711
 5355W        W36571   5.456  26.501   8.055 -0.1435 -0.2914 -0.0801
 5356W        W36572  15.938  11.791   9.655  0.0462 -0.1257 -0.3007
 5357W        W36573   7.079  13.216   1.267  0.0725 -0.0974 -0.1762
 5358W        W36574  22.537  20.387   1.098 -0.0556  0.2317  0.1013
 5359W        W36575   8.415  22.157   2.546 -0.2897 -0.3091  0.0659
 5360W        W36576  20.626  13.795   6.891  0.0614  0.0484  0.2871
 5361W        W36577  16.330  12.799   9.310 -0.2658 -0.1118 -0.0073
 5362W        W36578   5.169  19.096   9.724 -0.0578  0.0428  0.0671
 5363W        W36579  24.305  10.486  10.376 -0.0056 -0.0252 -0.2748
 5364W        W36580  12.609  10.314   9.364  0.0612 -0.0372 -0.1786
 5365W        W36581  15.360  20.402   0.440 -0.0097  0.1231 -0.0036
 5366W        W36582   0.917   8.322   9.010 -0.0045 -0.0708  0.1201
 5367W        W36583  23.179   6.929   1.116  0.2317  0.5775 -0.1913
 5368W        W36584  13.414  10.689   8.184  0.1787  0.1264 -0.0145
 5369W        W36585  17.735   4.919  10.140 -0.3122  0.0864  0.0242
 5370W        W36586   6.825  26.476   8.363  0.0940  0.0561 -0.2609
 5371W        W36587  23.208  20.093   0.481  0.0433 -0.3331 -0.0019
 5372W        W36588  15.685  17.136   8.832 -0.2477 -0.4149  0.0889
 5373W        W36589   1.074  12.945   8.959 -0.1152 -0.3898 -0.0292
 5374W        W36590  18.278  12.106   8.961 -0.0287 -0.2123  0.2057
 5375W        W36591  26.322   0.591   9.265 -0.1629 -0.0510 -0.0450
 5376W        W36592   1.910  25.822   0.417  0.2565  0.1521 -0.0446
 5377W        W36593  21.049   1.743   3.390 -0.0499 -0.2387  0.2661
 5378W        W36594   7.956  25.266   9.594 -0.0789 -0.3541  0.1425
 5379W        W36595  15.449  13.155   8.404 -0.0439  0.2779  0.3379
 5380W        W36596   7.488   3.756   9.734 -0.1147  0.4455  0.0778
 5381W        W36597  16.525   5.741   3.111  0.0344 -0.1123  0.0646
 5382W        W36598  27.286  24.268   2.125  0.1387  0.0101  0.0993
 5383W        W36599   2.930   1.367   0.447 -0.2305 -0.0284  0.0479
 5384W        W36600  21.532  26.598   3.036 -0.1168  0.2235 -0.1852
 5385W        W36601  16.544  18.790   2.710 -0.0860  0.1873  0.0863
 5386W        W36602   8.485  27.463   9.423 -0.0625 -0.2663  0.1616
 5387W        W36603  14.064   0.782   1.125 -0.1126 -0.1255 -0.1014
 5388W        W36604  15.649  22.111   9.012  0.0738  0.0501 -0.0525
 5389W        W36605   1.893   9.307   0.344  0.1885  0.1272  0.1280
 5390W        W36606   9.902   4.910   8.401  0.2365  0.2777 -0.1425
 5391W        W36607  12.288   4.706   1.238  0.1018 -0.4120 -0.1878
 5392W        W36608  12.233  21.613   8.211 -0.2776  0.1436 -0.2589
 5393W        W36609  24.268  10.474   3.594  0.0138 -0.0017 -0.2163
 5394W        W36610  19.299   9.358   2.961  0.6730 -0.1075 -0.2934
 5395W        W36611   1.339   5.547   3.171 -0.2062  0.0774 -0.1280
 5396W        W36612  15.166  25.241   0.528  0.0747 -0.0891  0.0454
 5397W        W36613  22.643  15.000   9.226  0.0107  0.0717 -0.1671
 5398W        W36614   4.131  16.193   8.150 -0.3277 -0.2869 -0.1484
 5399W        W36615   3.521   0.965   9.359  0.2717 -0.1020 -0.0156
 5400W        W36616  25.687   3.731   9.722  0.0604 -0.1497 -0.1995
 5401W        W36617   6.577   0.540   8.174  0.3985  0.4161  0.0290
 5402W        W36618  26.477   4.623  10.144  0.1302  0.0738  0.2573
 5403W        W36619   1.560   5.408   0.758  0.0790  0.0332 -0.2828
 5404W        W36620  17.520   1.287   0.501  0.1431  0.0145 -0.1233
 5405W        W36621   4.688  11.874   2.825  0.2629  0.3305  0.2143
 5406W        W36622  19.244   3.190   9.008  0.1719  0.0690 -0.4843
 5407W        W36623  16.954  22.074   1.551 -0.1992  0.1676  0.1594
 5408W        W36624  20.139   1.601   3.809  0.0234  0.2296 -0.4417
 5409W        W36625   5.854  16.141   2.727  0.2321  0.1046 -0.0252
 5410W        W36626  20.144  24.508   0.517  0.3237 -0.2527  0.1579
 5411W        W36627   5.288  14.191   2.555  0.1416 -0.0716  0.1874
 5412W        W36628  18.189   6.958   8.374 -0.1155  0.0514  0.2686
 5413W        W36629   3.174   2.268  10.212 -0.0104  0.1432 -0.4960
 5414W        W36630   9.174   8.339   2.856 -0.0352 -0.2239  0.3917
 5415W        W36631   1.517  17.866   3.456  0.1457 -0.1749 -0.0829
 5416W        W36632   6.549   1.745   9.455 -0.1049 -0.4977 -0.0993
 5417W        W36633   4.515  11.510   8.968 -0.3041 -0.3031 -0.1577
 5418W        W36634   9.003  25.193   9.511  0.0796  0.2214  0.0989
 5419W        W36635  19.810  23.256   1.362 -0.1158 -0.4775 -0.1560
 5420W        W36636   4.552  25.623   9.986 -0.1421 -0.1404  0.0321
 5421W        W36637  27.126  10.761   8.264  0.1475  0.0659 -0.1495
 5422W        W36638   3.590  21.030   0.920  0.0573  0.3054 -0.1287
 5423W        W36639  11.750   3.283   1.567  0.0184  0.1776 -0.0375
 5424W        W36640  13.529  15.133   9.837  0.2556  0.0821 -0.0530
 5425W        W36641  15.210  12.057   7.876  0.0929  0.1510 -0.0797
 5426W        W36642   9.549   5.508   7.697 -0.2716  0.1779 -0.1065
 5427W        W36643  13.727  21.399  10.410  0.3307 -0.1670  0.0964
 5428W        W36644   2.714  24.147   9.914  0.2154  0.0481  0.1358
 5429W        W36645   2.819  27.268  10.539  0.1601  0.2908 -0.1476
 5430W        W36646  24.295  10.826   1.677  0.1020  0.1064 -0.0734
 5431W        W36647  14.261  14.430   8.829 -0.0417  0.1852 -0.0524
 5432W        W36648  16.432  17.857   2.595 -0.1042 -0.1888  0.2217
 5433W        W36649  17.152  12.168   2.575  0.1195 -0.2017 -0.0048
 5434W        W36650  14.964  20.842  10.308  0.2162  0.0095 -0.0273
 5435W        W36651  10.675  16.792   2.247 -0.0959  0.0580 -0.0712
 5436W        W36652  17.583  26.449   0.358  0.4068  0.1526  0.4853
 5437W        W36653  20.842  18.623   6.886 -0.2432 -0.1663 -0.3488
 5438W        W36654   2.485   8.154   3.714 -0.2233 -0.4516  0.1019
 5439W        W36655   5.751   6.732   1.020 -0.1898 -0.0213  0.0176
 5440W        W36656   8.394   1.658   8.153  0.0494  0.0116  0.1686
 5441W        W36657  22.257  24.418   9.465  0.1780 -0.1514  0.2072
 5442W        W36658  17.748  25.081   0.101 -0.1027  0.2353 -0.2568
 5443W        W36659  16.590  12.277   0.769 -0.1298  0.2464 -0.1247
 5444W        W36660  24.090  13.117   3.029 -0.0663  0.1972  0.1372
 5445W        W36661  26.321   0.910   8.785  0.5123  0.0366 -0.2114
 5446W        W36662  25.130  21.567   6.919  0.2133 -0.0467 -0.0100
 5447W        W36663  24.868  23.480   7.406 -0.0248 -0.0546 -0.0010
 5448W        W36664   8.362  12.915   7.944 -0.4357  0.3561  0.0036
 5449W        W36665  12.980   9.629   0.379  0.4449  0.0715 -0.2124
 5450W        W36666   3.186   6.980   9.105  0.0169  0.0418 -0.1676
 5451W        W36667  20.789   2.007   2.082  0.0473  0.0574  0.2607
 5452W        W36668  23.036   5.299   1.486 -0.0824  0.2888 -0.2800
 5453W        W36669   6.005  21.568   0.800  0.0601 -0.1052  0.0470
 5454W        W36670  10.286  19.229   0.593 -0.0484  0.1842 -0.2980
 5455W        W36671  22.691   0.797   8.680 -0.0324 -0.1754 -0.0831
 5456W        W36672  14.141   0.704   1.640  0.1158 -0.0035 -0.0654
 5457W        W36673  11.817  23.005   1.949  0.0655  0.3859  0.0775
 5458W        W36674   2.932   4.045   2.446 -0.0159  0.1028  0.1983
 5459W        W36675   5.674  27.279   3.528  0.1859 -0.1008  0.1511
 5460W        W36676   2.986  16.950   3.457 -0.1166 -0.1231  0.2005
 5461W        W36677   5.364  11.222   2.722  0.1372 -0.1702 -0.1517
 5462W        W36678  25.436   1.195   0.602 -0.0236  0.3308  0.1009
 5463W        W36679  16.183   8.249   2.621 -0.0927  0.2288 -0.1938
 5464W        W36680  17.282  20.702   3.717 -0.1079  0.1448 -0.1376
 5465W        W36681  23.064   3.303   8.106 -0.2160  0.0886  0.1597
 5466W        W36682   8.314   2.056   3.259  0.2871 -0.1096  0.1282
 5467W        W36683  23.657   6.302   7.852  0.0181 -0.1217 -0.0368
 5468W        W36684  27.353  14.779   9.023  0.2019 -0.0195 -0.3152
 5469W        W36685   7.957  13.156   8.043 -0.1729  0.3715 -0.1609
 5470W        W36686  17.824  16.008   1.327  0.0957 -0.2068 -0.0225
 5471W        W36687   4.852  14.762   2.073  0.0910 -0.1611  0.0957
 5472W        W36688   9.659   6.425   0.684 -0.0531  0.2337  0.2219
 5473W        W36689  18.572   7.939   0.927  0.1133  0.1916 -0.1773
 5474W        W36690  23.415   2.782   0.795 -0.0461  0.0266  0.1004
 5475W        W36691  18.839  20.803   8.378  0.2716 -0.1351  0.1109
 5476W        W36692  13.979  25.366   3.137 -0.0731 -0.1919 -0.1493
 5477W        W36693  13.367  15.312   3.518  0.2338  0.2441  0.0523
 5478W        W36694  16.719   9.981   0.904  0.0322  0.2566  0.0314
 5479W        W36695  20.674   3.578   3.013  0.1666  0.2040  0.1959
 5480W        W36696   4.503   9.091   2.193  0.0628 -0.1221  0.3021
 5481W        W36697  15.527  13.457   3.302 -0.1695 -0.2089 -0.1222
 5482W        W36698   6.283  18.589   8.938  0.0364 -0.2774  0.0709
 5483W        W36699  25.674  11.776   2.504 -0.2407  0.0783 -0.0120
 5484W        W36700  13.378  12.330   8.883 -0.1741  0.0566 -0.0821
 5485W        W36701  21.493  20.075   3.879  0.2229 -0.0230  0.1834
 5486W        W36702  24.213   9.433   9.884 -0.1708  0.2831 -0.0711
 5487W        W36703   5.003  19.834   8.251  0.1625 -0.0300  0.0171
 5488W        W36704   6.821   3.495   1.359 -0.1221 -0.0721 -0.1799
 5489W        W36705  17.431  14.364   1.571  0.0944  0.1653 -0.6262
 5490W        W36706  22.644  11.468   8.867  0.0322  0.1193  0.1829
 5491W        W36707  26.432  19.474   8.588 -0.0878  0.1334 -0.1061
 5492W        W36708  19.411   2.983   0.941  0.0100  0.0970  0.3053
 5493W        W36709   6.873  26.765   2.226  0.0011 -0.1272 -0.2572
 5494W        W36710  17.850  17.088   8.582 -0.0772 -0.1178 -0.1708
 5495W        W36711  14.712  13.192   7.327  0.1157 -0.2508  0.2674
 5496W        W36712   0.048  24.308  10.173  0.1494 -0.0804 -0.3504
 5497W        W36713   7.318  19.547   1.610 -0.0188 -0.1816  0.1878
 5498W        W36714  18.893  17.740   8.278 -0.3464 -0.0264  0.2511
 5499W        W36715   3.848   7.417   0.664  0.1709 -0.2120 -0.1386
 5500W        W36716   3.646  23.614  10.107  0.1932  0.3091  0.1152
 5501W        W36717   9.528  17.743   9.028  0.0510  0.3869 -0.0758
 5502W        W36718   8.817  17.489   9.642  0.1618  0.0032 -0.3928
 5503W        W36719  10.321  22.270   9.806 -0.2439  0.2948  0.1551
 5504W        W36720   6.238   1.307   3.746 -0.1713 -0.0872 -0.2351
 5505W        W36721   6.225  20.744   1.994  0.0121 -0.1794  0.1234
 5506W        W36722  18.878  21.860   0.538 -0.0128 -0.3068 -0.0183
 5507W        W36723  21.649  16.768   7.300  0.1564  0.1330 -0.1821
 5508W        W36724   4.149  24.139   1.063 -0.0746  0.1687 -0.2177
 5509W        W36725   0.069  21.138   8.740  0.0487  0.2764 -0.1035
 5510W        W36726  19.422  10.477   3.120  0.2494 -0.0007 -0.0811
 5511W        W36727   5.712  21.799   2.929  0.1628  0.1465 -0.1700
 5512W        W36728  17.657  17.950  10.360 -0.1058 -0.4350 -0.0543
 5513W        W36729   7.103   5.810   8.910 -0.0958  0.0011 -0.0256
 5514W        W36730  15.715  12.160   2.843  0.0801 -0.1851  0.1465
 5515W        W36731  22.403   6.458  10.087 -0.2805 -0.2140 -0.2114
 5516W        W36732   4.581  18.810   2.755  0.0574  0.0036  0.1923
 5517W        W36733  25.399  21.561   2.217 -0.0359 -0.0077 -0.0257
 5518W        W36734   6.807  23.356   3.797  0.1180 -0.1217 -0.1372
 5519W        W36735   1.068   0.468   8.238  0.1467 -0.1987 -0.2665
 5520W        W36736  18.482  27.551   8.002  0.0059  0.0941 -0.1294
 5521W        W36737  20.169   0.352   9.414  0.0209  0.0355  0.3202
 5522W        W36738  25.585  24.159   2.875 -0.3296 -0.0206 -0.1468
 5523W        W36739  27.070   3.947   2.036 -0.2118  0.1060 -0.1698
 5524W        W36740   3.014  19.951   2.149 -0.0772 -0.0217  0.3003
 5525W        W36741  11.639  21.903   1.910  0.1411  0.0360 -0.1571
 5526W        W36742  26.528   7.335   1.350  0.0830  0.3855 -0.3022
 5527W        W36743  15.513  25.692   2.747  0.2497 -0.1600  0.1365
 5528W        W36744   8.452   5.083   6.994 -0.0619 -0.0824 -0.1456
 5529W        W36745   3.334  22.629   7.761  0.1525 -0.5820 -0.5455
 5530W        W36746  11.883   9.464   0.902  0.0341  0.2340  0.2178
 5531W        W36747   7.062  19.976   1.734 -0.2394  0.2961  0.1386
 5532W        W36748  23.850  15.954   2.423 -0.3102  0.1196 -0.0054
 5533W        W36749  24.806  18.916   3.529  0.0120 -0.0584 -0.1863
 5534W        W36750  16.288  10.126   9.870 -0.3036 -0.1795  0.1056
 5535W        W36751   5.258  11.241   1.560 -0.0476 -0.2680  0.1041
 5536W        W36752  11.410  11.987   2.859 -0.0723  0.1771  0.1302
 5537W        W36753  20.017  26.740   8.922  0.3733  0.0105  0.1884
 5538W        W36754  25.068  23.514   8.647 -0.1954 -0.3398  0.0153
 5539W        W36755  11.179   7.321   1.585  0.0028 -0.1169 -0.1915
 5540W        W36756  21.927   2.724   3.072  0.1390 -0.0483  0.1305
 5541W        W36757  23.252   3.721  10.037 -0.0269  0.3997  0.1520
 5542W        W36758  18.059  11.992   1.859 -0.3621  0.0444 -0.0429
 5543W        W36759   1.414  15.285   7.522  0.1752 -0.1772 -0.0019
 5544W        W36760  19.593  19.916   8.425 -0.0284 -0.1249  0.1735
 5545W        W36761   7.574  13.569  10.129  0.2352  0.1282 -0.0076
 5546W        W36762   1.604   6.007   8.299  0.1414 -0.3826  0.1292
 5547W        W36763   4.853  16.616   8.375 -0.0879 -0.0104  0.0449
 5548W        W36764  19.136   5.975  10.296 -0.1111  0.2362  0.2992
 5549W        W36765  26.839  18.921   9.286  0.1866 -0.0482  0.1567
 5550W        W36766  20.310  21.014   4.164  0.0586 -0.2227  0.0370
 5551W        W36767   9.281   3.632   7.910  0.1520  0.0283 -0.1319
 5552W        W36768  12.953   8.413  10.306  0.2478 -0.2042  0.2179
 5553W        W36769  15.125  14.491   8.259  0.1490 -0.3705  0.0125
 5554W        W36770  25.847   3.836   1.536  0.1802  0.0658  0.0898
 5555W        W36771   6.190   4.808   1.373 -0.0185 -0.1310  0.1339
 5556W        W36772   5.257  24.677   9.077 -0.0640 -0.0499  0.1948
 5557W        W36773   6.500  14.251   2.643 -0.1750 -0.0541  0.3310
 5558W        W36774   1.560  20.691   1.928  0.1648  0.1517  0.2501
 5559W        W36775  16.258  18.341   1.094 -0.0394 -0.3869 -0.3773
 5560W        W36776  20.091  21.776   3.006 -0.4867 -0.1044  0.0030
 5561W        W36777  22.002  12.165   0.609  0.1879 -0.4262 -0.1391
 5562W        W36778   3.254  22.246   0.823  0.0697  0.0183 -0.0352
 5563W        W36779   9.409  16.357   2.575  0.0641 -0.1897 -0.1356
 5564W        W36780   1.261  16.323   8.662 -0.0502 -0.0931 -0.4721
 5565W        W36781  12.734  25.425  10.495 -0.0885  0.0519 -0.0728
 5566W        W36782   4.058  24.903   9.600 -0.1848  0.1011  0.1407
 5567W        W36783  17.247  11.403  10.189 -0.2524  0.2568  0.1001
 5568W        W36784  14.712  25.965   9.018 -0.1404  0.1407  0.1639
 5569W        W36785  15.076  15.531   7.975 -0.0907 -0.0920  0.2041
 5570W        W36786  20.619  14.133   7.294 -0.2321  0.0312  0.1349
 5571W        W36787  19.585   4.524   8.658  0.0215 -0.0995  0.1965
 5572W        W36788  13.079  17.405   0.836 -0.1001 -0.1721  0.1594
 5573W        W36789  10.863  18.820   2.282  0.0254 -0.0119 -0.0203
 5574W        W36790   5.426  14.473   6.981  0.4516 -0.3286 -0.2713
 5575W        W36791  19.901  17.002   2.508  0.1074 -0.0569 -0.1620
 5576W        W36792  21.627  11.356   9.204 -0.1058  0.0131  0.0374
 5577W        W36793  18.647  19.362   3.482  0.5119  0.0227  0.4196
 5578W        W36794  12.850  19.829   8.226  0.1549  0.0756  0.1681
 5579W        W36795  11.405  20.292  10.389 -0.0311  0.0865  0.2609
 5580W        W36796  22.664  27.513   8.953  0.1935 -0.0339  0.2064
 5581W        W36797  25.837   6.978   2.413 -0.0834  0.1117 -0.0197
 5582W        W36798   9.348  21.930   1.996  0.0389 -0.0952 -0.2732
 5583W        W36799  24.186  14.393   7.664 -0.3041 -0.0755 -0.3557
 5584W        W36800  27.081   8.302   1.993 -0.0718  0.2264 -0.3062
 5585W        W36801  12.340   3.651   0.534 -0.0472  0.3712 -0.0594
 5586W        W36802  15.125  14.805   9.461  0.0985 -0.0059  0.0498
 5587W        W36803  23.049  13.813  10.459 -0.1810  0.1805  0.2244
 5588W        W36804  25.956  26.295   1.330 -0.0369  0.0897  0.0331
 5589W        W36805  24.874  25.876   8.606 -0.2488  0.3575  0.1721
 5590W        W36806  11.799  19.442   9.104 -0.0572 -0.3621 -0.0685
 5591W        W36807   4.378   0.426   0.883 -0.1434  0.2027 -0.3930
 5592W        W36808   7.466  18.799   9.693  0.1795 -0.1124 -0.3463
 5593W        W36809  24.785   4.946   2.019  0.3277  0.5558  0.0433
 5594W        W36810  21.085   1.980   8.752  0.1611 -0.2468  0.1269
 5595W        W36811  11.693   9.587   8.474  0.2442 -0.0304  0.1994
 5596W        W36812  22.915   5.549   1.933 -0.2244  0.0332 -0.1533
 5597W        W36813  22.070   2.917   1.132  0.0887 -0.0688 -0.3443
 5598W        W36814   2.688  18.426   3.099  0.2107 -0.1855  0.0209
 5599W        W36815  26.574  15.132   8.493 -0.2200 -0.1499  0.0597
 5600W        W36816  17.399  20.052   9.065 -0.0041  0.2469  0.1807
 5601W        W36817  16.250   5.816   2.571  0.0402 -0.1184 -0.0068
 5602W        W36818  17.108  26.074   1.054  0.1835  0.1544 -0.1829
 5603W        W36819  23.477   4.538   9.968 -0.1470  0.0350 -0.2734
 5604W        W36820  26.839  25.982   0.336 -0.1485  0.0763 -0.2866
 5605W        W36821   0.058   2.250   2.889 -0.0600  0.0124 -0.3058
 5606W        W36822  25.219  26.143   8.927  0.0009 -0.0534  0.0371
 5607W        W36823  19.732   1.787   1.943 -0.0314 -0.2597  0.3328
 5608W        W36824  16.405  15.486  10.432  0.0303 -0.0255 -0.2275
 5609W        W36825   4.285  18.135   2.685  0.1907  0.1291  0.2469
 5610W        W36826  14.894  27.617   2.392 -0.2093 -0.0192  0.3334
 5611W        W36827  23.227   2.017   0.303  0.2289  0.2386  0.0467
 5612W        W36828  11.614  23.850   0.486 -0.3746 -0.2736 -0.1442
 5613W        W36829  13.442   2.253   0.586 -0.0557  0.3975  0.4781
 5614W        W36830  26.435  20.629   2.493  0.0516  0.0553 -0.4323
 5615W        W36831   1.401  20.678   9.310 -0.3465 -0.3664 -0.0739
 5616W        W36832  27.580   4.803   9.230  0.0224  0.1232  0.1253
 5617W        W36833   7.581  15.492   0.444  0.1420 -0.1565 -0.1831
 5618W        W36834  19.669   1.118   2.478  0.1724  0.0423 -0.1880
 5619W        W36835   5.090  17.797  10.540 -0.3328 -0.0230  0.2789
 5620W        W36836   4.978  25.933   1.893  0.0316  0.0019  0.1260
 5621W        W36837  25.709  20.812   9.553  0.1745 -0.0980 -0.1103
 5622W        W36838  24.968  19.823   0.981 -0.1234 -0.0762  0.0788
 5623W        W36839  24.865  19.910  10.188  0.2791 -0.1160 -0.2650
 5624W        W36840  25.213   1.771   0.296 -0.2591  0.1319  0.3059
 5625W        W36841  16.613  27.168   9.918 -0.1324 -0.0353  0.0290
 5626W        W36842  24.715   9.585  10.181  0.3386 -0.0751  0.1249
 5627W        W36843  20.689   2.083   3.517  0.3178  0.0354  0.3892
 5628W        W36844   8.205  16.406   1.365 -0.1036 -0.3599  0.1605
 5629W        W36845  27.103  15.285   8.437 -0.0042 -0.0037 -0.0803
 5630W        W36846   1.435   8.548   9.809  0.0445  0.0017  0.0733
 5631W        W36847   1.400   3.213   9.055  0.0848  0.5353 -0.0482
 5632W        W36848   9.500  19.340   1.617 -0.0708 -0.0173  0.3391
 5633W        W36849   2.534  15.642   8.604 -0.1814 -0.1882  0.2071
 5634W        W36850   4.561  21.071   3.311 -0.1875 -0.3547  0.0209
 5635W        W36851  10.394  21.122   3.561  0.1579 -0.2764  0.3285
 5636W        W36852   5.822  22.639   0.885 -0.1436  0.0655  0.1550
 5637W        W36853  22.674   5.818   8.834  0.2270  0.3357  0.0717
 5638W        W36854  15.168   6.303   1.530 -0.0275 -0.2517  0.3090
 5639W        W36855  12.710   1.557   8.164  0.0228  0.1298 -0.1345
 5640W        W36856   3.731  12.450   7.041 -0.4220 -0.0778 -0.2208
 5641W        W36857   8.385   5.478   0.924 -0.4042  0.0040 -0.0065
 5642W        W36858  25.022  11.549   3.879  0.2176 -0.0089  0.1836
 5643W        W36859  26.681  22.437  10.142 -0.1417 -0.2248 -0.0915
 5644W        W36860  10.010  23.654   8.501  0.0381 -0.0268 -0.3027
 5645W        W36861  23.191  14.245   7.710  0.1451 -0.2112 -0.0828
 5646W        W36862  10.760   0.151   3.314  0.0597 -0.1652 -0.0293
 5647W        W36863  20.875  14.572   9.553  0.3462 -0.0511 -0.2489
 5648W        W36864  16.294  26.005   8.521  0.4519 -0.0982 -0.4735
 5649W        W36865   6.775  25.701   2.470  0.0045 -0.0796 -0.0469
 5650W        W36866  23.309   8.369   8.052  0.2408  0.1633 -0.1101
 5651W        W36867  25.406   8.682   8.129  0.1088 -0.0995 -0.1384
 5652W        W36868  16.591   3.698   3.979 -0.1179 -0.1647  0.2696
 5653W        W36869   9.813  13.641   9.300  0.2416 -0.1047 -0.4075
 5654W        W36870  12.845  11.244   8.146 -0.1654  0.1118 -0.0871
 5655W        W36871  26.683   2.364  10.450 -0.0369  0.1378 -0.0418
 5656W        W36872  14.220  23.819   0.582  0.2784  0.0469 -0.1199
 5657W        W36873   1.943  15.998   2.062  0.0921  0.1422 -0.1215
 5658W        W36874   6.160  20.179   1.775  0.1148  0.0329  0.0463
 5659W        W36875   1.845  23.636   8.669  0.2783 -0.1214 -0.0649
 5660W        W36876  21.006   2.462  10.266  0.1125  0.0450  0.5537
 5661W        W36877  22.375  23.122   1.341 -0.0871 -0.1317  0.0662
 5662W        W36878   3.205  21.413   4.130 -0.2267  0.0496  0.2153
 5663W        W36879  12.830  22.496   2.846 -0.0685  0.2256  0.2204
 5664W        W36880  20.278  17.239   0.444  0.4759 -0.0403  0.2259
 5665W        W36881   5.574  18.990   1.987  0.1977  0.1873  0.3860
 5666W        W36882  16.492  25.429   0.989  0.1469  0.0589 -0.0973
 5667W        W36883   8.086  14.430   9.369  0.1518 -0.0537  0.0289
 5668W        W36884   8.325  23.812   2.163 -0.1876 -0.2181 -0.2744
 5669W        W36885  25.178  21.559   3.613  0.1165 -0.1492  0.0766
 5670W        W36886  24.837  21.289   7.754 -0.0988 -0.0434  0.0739
 5671W        W36887  13.860   7.505   7.878  0.0075  0.0450  0.0734
 5672W        W36888   3.331  18.091  10.497 -0.1658  0.1172 -0.3278
 5673W        W36889  17.011  22.901   8.177  0.0610  0.0271 -0.1367
 5674W        W36890   1.921   8.280   1.732  0.3333  0.1694 -0.1068
 5675W        W36891  13.624   5.204   8.646 -0.0352 -0.2147  0.4217
 5676W        W36892   1.256  15.998   8.215  0.0369 -0.0858  0.1992
 5677W        W36893  11.760  19.454   2.951  0.2703  0.0438 -0.0820
 5678W        W36894  21.340   4.802   8.878 -0.2375 -0.1720 -0.0665
 5679W        W36895   9.761  20.477   2.420  0.1362  0.0142  0.0083
 5680W        W36896   8.840  23.871   0.266 -0.2493 -0.1404 -0.2387
 5681W        W36897   1.500  11.911   2.988  0.1387  0.1610 -0.1293
 5682W        W36898   3.820  14.143   9.817  0.3690 -0.0830 -0.2577
 5683W        W36899   2.915   9.425   0.969  0.1629  0.0015  0.3964
 5684W        W36900  26.290  11.929   3.294 -0.3156  0.1616 -0.3412
 5685W        W36901  15.604  21.001   0.286 -0.0790 -0.1802 -0.0226
 5686W        W36902   6.248  25.283   8.388  0.1390 -0.2244  0.0789
 5687W        W36903  13.053  14.979   8.414 -0.2864 -0.3620  0.2903
 5688W        W36904  23.140   6.033  10.343  0.0795 -0.0063  0.0250
 5689W        W36905   0.132  15.644   1.538  0.2268 -0.1183 -0.0804
 5690W        W36906  17.102   1.891   9.723 -0.1109  0.0545 -0.2192
 5691W        W36907  16.991   8.137   2.684  0.4096  0.1667  0.2613
 5692W        W36908  14.335   6.108   8.936  0.1340  0.1625  0.0022
 5693W        W36909  22.792  13.571   9.924  0.0962  0.0734 -0.0824
 5694W        W36910  10.489   1.275   0.261  0.0822  0.1133  0.1235
 5695W        W36911   6.461  12.786   8.593 -0.0365 -0.3642  0.0569
 5696W        W36912   8.021   7.899   3.549 -0.0822  0.3843  0.2809
 5697W        W36913  24.652  22.063   1.558  0.1401  0.2912  0.0797
 5698W        W36914   9.821   9.538   9.820 -0.0806  0.1948  0.0548
 5699W        W36915  15.499  17.942   0.044  0.0404 -0.2220  0.3603
 5700W        W36916  24.138  17.315   1.369 -0.3260 -0.2533  0.0747
 5701W        W36917  21.981  10.883   3.503 -0.0159 -0.3310 -0.0079
 5702W        W36918  25.300  24.672   7.912  0.1903 -0.1190 -0.0695
 5703W        W36919  22.982  16.440   8.903  0.1071 -0.0547  0.0430
 5704W        W36920   6.118  12.955   2.635 -0.0040 -0.0625 -0.0203
 5705W        W36921  12.075  22.728   2.279  0.0310  0.0118  0.1804
 5706W        W36922  23.896  26.178   7.792  0.1790  0.1590  0.2234
 5707W        W36923  15.662   6.822   1.144  0.0473  0.0879  0.3916
 5708W        W36924   8.333   3.385   0.261 -0.3304  0.3669 -0.2036
 5709W        W36925  12.377  20.199   0.719 -0.1548 -0.1652  0.0473
 5710W        W36926  20.613  11.559   9.840 -0.1575 -0.0761 -0.4124
 5711W        W36927   6.652   9.914   9.952  0.1859  0.0639 -0.0768
 5712W        W36928   2.896   3.856   8.987 -0.0916 -0.0643  0.2737
 5713W        W36929  16.261   4.768   2.495 -0.2077 -0.1064  0.3555
 5714W        W36930  12.991  11.596   3.821 -0.3882  0.1793 -0.1251
 5715W        W36931   7.415  12.824   1.216  0.4839  0.3467  0.3407
 5716W        W36932  18.957  15.255   9.460  0.0702 -0.0698 -0.5705
 5717W        W36933   0.211  21.065   0.102  0.3091  0.1457  0.2768
 5718W        W36934   3.210  18.657   3.064  0.0966  0.0052 -0.1340
 5719W        W36935  24.910  16.664   0.153 -0.2018  0.0354  0.2087
 5720W        W36936   6.202  19.523   9.242  0.1192 -0.3094  0.0497
 5721W        W36937  12.429  26.853  10.508  0.0536 -0.1990  0.0573
 5722W        W36938   8.496  12.030  10.281 -0.1060  0.0212  0.1491
 5723W        W36939   3.779  27.503   0.956 -0.4242 -0.2909  0.5335
 5724W        W36940  24.874  10.451   1.094 -0.2787 -0.1511 -0.0379
 5725W        W36941   6.019  13.837   1.609  0.3799 -0.2416  0.0222
 5726W        W36942  25.387   3.864   1.840 -0.0998  0.3080 -0.3580
 5727W        W36943  21.474   1.935   1.619  0.2509  0.1584 -0.2871
 5728W        W36944  15.331   3.829   0.278 -0.0251  0.0687 -0.1202
 5729W        W36945  11.857  25.859   1.791 -0.3066 -0.2037  0.0242
 5730W        W36946  27.172   5.045   2.527  0.1700  0.2858  0.1643
 5731W        W36947   3.395  12.754   1.171 -0.0828  0.1661 -0.2014
 5732W        W36948   1.899  14.980   8.990  0.0665  0.0673 -0.1249
 5733W        W36949  27.219  20.147   3.664 -0.0283 -0.0833 -0.3054
 5734W        W36950  15.195  12.287   9.737 -0.3561 -0.1605 -0.0214
 5735W        W36951   5.981  16.666   9.048 -0.2076 -0.0465  0.0609
 5736W        W36952  26.660   2.893  10.214  0.2511 -0.1269  0.0377
 5737W        W36953  16.816  12.484   8.120  0.0591  0.1279 -0.3319
 5738W        W36954   6.084   8.604   0.217 -0.2748 -0.2668 -0.1941
 5739W        W36955   2.313   9.959   9.114 -0.1650  0.0486 -0.0511
 5740W        W36956  21.135  19.354   2.760  0.1203 -0.0907 -0.3274
 5741W        W36957  25.174   6.531  10.073 -0.2649  0.1980 -0.4934
 5742W        W36958   3.170   8.402   9.150 -0.0991  0.0654 -0.1403
 5743W        W36959   3.197  23.069   8.212  0.0005  0.1259  0.1219
 5744W        W36960   6.297  24.409   3.483 -0.1907 -0.2264 -0.1234
 5745W        W36961   2.048   1.637  10.160 -0.0046  0.0611 -0.0452
 5746W        W36962  11.344  23.812   9.286 -0.2378  0.1767 -0.0073
 5747W        W36963  17.415  16.498   0.319 -0.0177 -0.1466  0.1279
 5748W        W36964  14.048  22.251   8.406 -0.0085 -0.0391 -0.2249
 5749W        W36965  22.405  18.564   9.352  0.2038 -0.2757  0.2103
 5750W        W36966   6.161  10.368   0.505  0.0986  0.2518  0.0470
 5751W        W36967   4.375  10.697  10.177  0.2882  0.1099 -0.0951
 5752W        W36968  22.465   2.451   2.402  0.1323  0.0350  0.0907
 5753W        W36969   4.917  20.043   2.464 -0.1170 -0.2494 -0.1431
 5754W        W36970  12.982  20.809   8.684 -0.2753 -0.0033 -0.2539
 5755W        W36971   5.646  19.926  10.419  0.2220  0.0243 -0.3359
 5756W        W36972  12.738  26.349   1.453 -0.0693 -0.0294  0.1518
 5757W        W36973   5.657  19.823   9.068  0.2947  0.0581 -0.1503
 5758W        W36974  18.129   1.183   2.115  0.0333 -0.0459  0.3629
 5759W        W36975   8.061  15.473   1.127  0.1310  0.1561 -0.1168
 5760W        W36976   3.286  12.548   8.891 -0.0124 -0.1474 -0.0346
 5761W        W36977  24.548  11.674   1.521 -0.0415 -0.2395  0.0661
 5762W        W36978  17.032  25.540   7.537 -0.2378 -0.2246  0.1696
 5763W        W36979   2.129  15.577   9.917 -0.1291 -0.1785 -0.1238
 5764W        W36980   9.396  15.183   8.123 -0.1230  0.4806  0.3149
 5765W        W36981  12.695  21.103   9.751 -0.1548  0.1128 -0.0825
 5766W        W36982   2.254  23.391   8.787  0.0623 -0.0217  0.0678
 5767W        W36983  26.959  26.740   2.196 -0.0977 -0.0223 -0.2845
 5768W        W36984  19.826   7.089  10.049  0.1878  0.0851  0.1498
 5769W        W36985  21.666   9.361   2.455  0.0479 -0.2248  0.0156
 5770W        W36986   2.752  18.104   1.077  0.1907 -0.1247  0.1481
 5771W        W36987  14.021   3.526   0.140 -0.2155  0.5813 -0.3646
 5772W        W36988  18.983  20.812   0.898 -0.1281 -0.3030  0.0363
 5773W        W36989  15.579  15.041   9.121  0.4150  0.0633  0.1050
 5774W        W36990   4.799   9.184   1.704  0.0263 -0.0447 -0.0406
 5775W        W36991  24.160  27.318   0.491  0.1698 -0.0083  0.0002
 5776W        W36992  21.381   7.968   8.503  0.0659  0.0935  0.0176
 5777W        W36993  24.980  14.260   7.745 -0.0567  0.0835  0.0192
 5778W        W36994  19.522   0.131   2.296 -0.0770 -0.0126 -0.1665
 5779W        W36995  26.563  21.745   7.889  0.0823 -0.1231 -0.0280
 5780W        W36996  18.989  27.429   2.945 -0.2410  0.0131  0.0199
 5781W        W36997   6.932   3.666   9.003  0.2256  0.0491  0.0850
 5782W        W36998  24.634  19.792   8.141  0.1507  0.0785 -0.1668
 5783W        W36999   2.101   1.022   0.846  0.1866 -0.0860 -0.1611
 5784W        W37000  23.189   4.914  10.081  0.0332 -0.3051  0.0752
 5785W        W37001  14.163  18.833   8.963  0.0428 -0.0049 -0.1702
 5786W        W37002  27.536   7.168   3.569  0.1168  0.0590 -0.1367
 5787W        W37003  25.822   0.305   0.628  0.0437 -0.0338  0.3570
 5788W        W37004  10.214  14.619  10.492  0.0131 -0.0544  0.1961
 5789W        W37005  16.151   2.151   2.645 -0.3173  0.1287 -0.0356
 5790W        W37006  11.066   6.673   0.790 -0.1124 -0.0153  0.0833
 5791W        W37007  14.854  20.196   0.483  0.0763  0.4552 -0.1025
 5792W        W37008  19.293   5.727   9.871  0.3239  0.3026 -0.1682
 5793W        W37009  10.900   8.880   7.579 -0.3423  0.3309 -0.1998
 5794W        W37010   7.238  23.037   8.869  0.1795 -0.1876  0.1313
 5795W        W37011  24.786  11.180  10.011 -0.2775 -0.0816 -0.0743
 5796W        W37012  19.383   3.530   9.389  0.0323 -0.1356  0.0549
 5797W        W37013  13.770   7.149   8.612 -0.1753  0.0452  0.2149
 5798W        W37014  22.117  13.741   0.022 -0.1350 -0.2493 -0.0814
 5799W        W37015  26.001  14.102   3.166  0.0398 -0.2356  0.2721
 5800W        W37016  23.975  16.110   1.191 -0.1250  0.0574  0.1347
 5801W        W37017  16.892   0.418   2.637  0.2039 -0.3049 -0.0993
 5802W        W37018  23.656  11.542   8.015  0.3365  0.0903  0.0133
 5803W        W37019   1.258   2.621   1.078  0.3218  0.2510  0.1586
 5804W        W37020   9.680  10.829   1.025 -0.2318 -0.0370  0.0700
 5805W        W37021  12.715   7.307   9.979 -0.2899  0.2145  0.2265
 5806W        W37022   5.628  25.397   0.668 -0.3869 -0.3042 -0.1381
 5807W        W37023   5.370   7.918   8.377  0.0358 -0.1561 -0.2182
 5808W        W37024  16.736   8.334  10.376  0.0710  0.3051  0.0978
 5809W        W37025   6.059  26.991   0.960  0.0299  0.1339  0.1174
 5810W        W37026  21.314   3.557   0.122 -0.0683  0.1678 -0.0587
 5811W        W37027  17.618  16.052   2.277 -0.0820 -0.1553 -0.1194
 5812W        W37028   6.087   5.524   0.001  0.0136  0.0580 -0.3469
 5813W        W37029  12.782  18.589   9.518  0.1812  0.0045  0.1604
 5814W        W37030   7.899   2.353   7.775 -0.0275  0.1934 -0.0312
 5815W        W37031  11.777   8.727   2.847  0.1649  0.0542 -0.2486
 5816W        W37032  13.182  12.632   2.024 -0.3278 -0.0293 -0.0904
 5817W        W37033  15.209   7.957   2.319  0.0213 -0.1538  0.2221
 5818W        W37034   2.997  25.077   0.439 -0.0971 -0.2065 -0.2957
 5819W        W37035   8.525  23.793   7.912 -0.2037  0.0578  0.5597
 5820W        W37036  15.504  19.221   0.021  0.2249 -0.1402 -0.0147
 5821W        W37037  20.515   2.364   8.792 -0.0929  0.0582 -0.0903
 5822W        W37038   6.448  26.289   3.063  0.0297  0.0547 -0.0578
 5823W        W37039  25.068  10.606  10.440 -0.1154  0.0160 -0.1801
 5824W        W37040  20.468  17.747   2.591 -0.1358  0.1312  0.1270
 5825W        W37041  13.767  21.264   0.557 -0.1368  0.1352  0.0562
 5826W        W37042   8.144  15.974   0.276  0.1939  0.0617  0.0690
 5827W        W37043   1.878  11.698   3.755 -0.1492 -0.1767 -0.3741
 5828W        W37044  14.942  13.739   7.067  0.1936 -0.1977 -0.0033
 5829W        W37045  22.486  16.681   0.845 -0.1421  0.3850 -0.2141
 5830W        W37046  22.250   9.399   8.136  0.0035 -0.0879  0.2853
 5831W        W37047  15.927  18.137   7.744 -0.2361 -0.0403 -0.0808
 5832W        W37048   7.984   0.136   0.739 -0.0358 -0.2883 -0.0974
 5833W        W37049   2.258   0.827   2.045 -0.0554  0.1995  0.2026
 5834W        W37050  12.831   1.924   2.220  0.1558  0.2845  0.1163
 5835W        W37051   4.431   5.471   2.742 -0.1615  0.1057 -0.0300
 5836W        W37052  26.204  17.787   8.143 -0.0812 -0.3445 -0.3076
 5837W        W37053  26.438   1.798   1.760 -0.0739  0.1904 -0.1035
 5838W        W37054  17.400  13.649   8.049  0.1041  0.3194 -0.1183
 5839W        W37055  27.521  13.275   1.836  0.2037  0.0266 -0.2925
 5840W        W37056   3.966  25.851   3.854  0.1159 -0.0360  0.0296
 5841W        W37057   6.717   8.158   2.269  0.0259 -0.1863  0.1134
 5842W        W37058  10.169   2.167  10.407 -0.1850  0.0892  0.0990
 5843W        W37059  21.981   7.882   0.071 -0.0344 -0.0571 -0.0850
 5844W        W37060  18.614  21.686   8.083 -0.0813  0.1030 -0.0507
 5845W        W37061   0.244  16.382   1.102 -0.1160 -0.2495 -0.1197
 5846W        W37062   8.197  21.125   2.705  0.2506  0.1130 -0.0849
 5847W        W37063   6.840   0.901   8.834 -0.0499  0.0156  0.0350
 5848W        W37064  12.917  10.677   8.116  0.0117  0.4215  0.4614
 5849W        W37065  25.008  25.863   2.991  0.2465  0.1146  0.0321
 5850W        W37066  26.930  18.452   0.061 -0.2609 -0.0397 -0.0795
 5851W        W37067  17.552  10.015   8.614  0.0960  0.4962 -0.0679
 5852W        W37068  13.943  11.571   9.988 -0.2773 -0.0056  0.0165
 5853W        W37069  26.548  24.913   8.903  0.1411 -0.0705 -0.0961
 5854W        W37070  21.699   7.776   8.191  0.0973 -0.3559  0.2369
 5855W        W37071  26.368  11.412   2.869  0.0070 -0.1690  0.1961
 5856W        W37072  16.902   1.015   8.547 -0.2667  0.0101 -0.3540
 5857W        W37073  13.474  22.443   2.277 -0.0742  0.0025  0.0078
 5858W        W37074   0.750  20.200   3.678 -0.0294 -0.0178 -0.2778
 5859W        W37075  20.680  13.562   1.636 -0.0915 -0.2500  0.3184
 5860W        W37076  25.351   0.301   2.274 -0.0455 -0.0390  0.0910
 5861W        W37077   6.796   4.847   1.475  0.0959  0.1023  0.0066
 5862W        W37078   7.320   3.346  10.075  0.1017 -0.2583  0.0045
 5863W        W37079  10.668   8.550   9.683 -0.1042  0.1535 -0.4533
 5864W        W37080  19.147   6.960   8.623 -0.3864 -0.1307 -0.1436
 5865W        W37081   4.252   7.783   8.964 -0.1610  0.4122 -0.0724
 5866W        W37082  27.358  22.188   7.603  0.1096 -0.3075 -0.1320
 5867W        W37083  19.626  12.926   2.059  0.3029  0.0462 -0.0451
 5868W        W37084  10.349   7.994   2.511  0.1253 -0.1168  0.2499
 5869W        W37085  14.653  10.402   3.697  0.1432 -0.2144 -0.0799
 5870W        W37086  20.124   0.191   0.881 -0.0601 -0.2122  0.2766
 5871W        W37087   8.208   1.155   3.553 -0.2984  0.3624 -0.0528
 5872W        W37088  20.189  22.868   1.567 -0.2090 -0.1534  0.2294
 5873W        W37089  21.221   9.548   0.382  0.1178  0.4033 -0.0241
 5874W        W37090  14.020  23.720   1.041  0.1186  0.0786  0.3304
 5875W        W37091  27.350  12.830   8.573  0.2349  0.0192  0.0033
 5876W        W37092  18.921  10.885   7.421  0.1762  0.0020  0.1406
 5877W        W37093  20.668   3.248   1.358 -0.2070  0.0715 -0.2489
 5878W        W37094  27.503   4.755   2.304  0.2626  0.1274 -0.2516
 5879W        W37095   8.760  26.293   9.073 -0.0485 -0.0877 -0.2519
 5880W        W37096  10.014   3.173   1.858  0.0470  0.2140 -0.0983
 5881W        W37097  26.543  21.902   0.241  0.0218  0.1536  0.2776
 5882W        W37098   2.826  24.735   3.402  0.0253  0.3392  0.0262
 5883W        W37099   6.554   5.035  10.109  0.0013 -0.1698 -0.3751
 5884W        W37100  19.541  14.551   3.595  0.2267  0.0032  0.0215
 5885W        W37101  12.691   0.545   9.457  0.1573  0.0838 -0.1104
 5886W        W37102  14.121   7.601   0.348 -0.3084  0.1238  0.4046
 5887W        W37103   8.390  19.275   1.406 -0.1395 -0.1684  0.1528
 5888W        W37104  27.605  11.766   8.439  0.1296  0.0119 -0.0841
 5889W        W37105  17.324   4.097   9.117 -0.0833 -0.0388 -0.1544
 5890W        W37106  18.977   0.232   0.834 -0.0437  0.1496  0.1592
 5891W        W37107   1.375   4.379   7.495 -0.2448 -0.1579 -0.6031
 5892W        W37108   6.973  16.420   1.784 -0.0017  0.1047  0.1935
 5893W        W37109   5.434   3.017   9.165 -0.1560 -0.2710  0.1626
 5894W        W37110  20.077  11.742   9.171 -0.2681  0.1650  0.2951
 5895W        W37111  23.370  21.731   9.792  0.1204 -0.2037 -0.1117
 5896W        W37112   3.397  27.078   3.035 -0.2627 -0.1720 -0.0296
 5897W        W37113   4.247  25.498   3.638  0.1104  0.2343  0.0209
 5898W        W37114  20.172  13.399   0.330  0.2615 -0.0342  0.0125
 5899W        W37115  18.697  19.898   2.696  0.0750 -0.1304 -0.1397
 5900W        W37116  25.872  22.084   2.303 -0.2516 -0.1793  0.4228
 5901W        W37117   2.855   2.529   1.152  0.0037 -0.1546 -0.1956
 5902W        W37118   5.596   7.370   2.437  0.2455 -0.1984  0.0805
 5903W        W37119   9.872   6.846   9.777  0.2258  0.3893  0.0600
 5904W        W37120  22.500  12.234   3.065  0.0436 -0.3569 -0.1910
 5905W        W37121  12.250  20.859   9.125 -0.2431  0.0582  0.1576
 5906W        W37122  14.703   1.382   9.152 -0.3332 -0.0092  0.0791
 5907W        W37123  19.930  19.127   7.407 -0.1713  0.3190 -0.1863
 5908W        W37124  16.528   2.909   8.806 -0.1157  0.1348  0.1975
 5909W        W37125  15.303   8.133   0.250 -0.0843 -0.4990 -0.1355
 5910W        W37126   3.796  16.746   8.394  0.0743  0.0200 -0.0198
 5911W        W37127  27.557  20.782   9.224  0.1207 -0.1199  0.0915
 5912W        W37128  15.861   1.533   0.442  0.1056  0.2510  0.3637
 5913W        W37129  27.297  26.931   2.705 -0.3949 -0.2241  0.1868
 5914W        W37130   1.878   5.843   7.908  0.1997 -0.0244 -0.0461
 5915W        W37131  11.718  17.694   0.177  0.1608  0.0014 -0.3009
 5916W        W37132  17.097  22.514   7.434 -0.0032 -0.0447 -0.1938
 5917W        W37133   9.796  10.764   7.999 -0.0207 -0.0832 -0.0020
 5918W        W37134  20.008  24.649   3.791  0.0745  0.0396 -0.0170
 5919W        W37135   7.565   6.468   8.310  0.2399 -0.1168  0.2568
 5920W        W37136  18.163  13.718   9.589  0.0777 -0.3985  0.0814
 5921W        W37137   1.668  26.888   9.204 -0.2669 -0.1593 -0.0085
 5922W        W37138   8.580  24.167   2.479  0.4123 -0.3466  0.1835
 5923W        W37139  14.716  11.161   8.497 -0.0245 -0.1533 -0.1643
 5924W        W37140  10.654  21.227   8.823 -0.0828  0.0077  0.0333
 5925W        W37141   1.750  23.777   9.965  0.1006  0.0296  0.2843
 5926W        W37142   1.436   5.091   3.836  0.0848  0.2175  0.2919
 5927W        W37143  23.639   7.309  10.405 -0.1612  0.0239 -0.1409
 5928W        W37144  17.745  23.046   9.694 -0.4292  0.0389 -0.1631
 5929W        W37145  14.817  25.223   1.373 -0.0598  0.4514 -0.1173
 5930W        W37146   1.609   4.025   9.591  0.2175 -0.1724  0.1121
 5931W        W37147   7.325  14.113   0.908 -0.2603 -0.0617 -0.0990
 5932W        W37148  14.141  22.748   0.969  0.0101 -0.1008  0.4812
 5933W        W37149  20.870   0.323   1.512  0.2485 -0.1522  0.0539
 5934W        W37150  24.807  20.709   1.280 -0.1072 -0.0563 -0.0376
 5935W        W37151  13.772  20.710   2.870 -0.0442 -0.1965  0.2104
 5936W        W37152  18.021  11.948   7.957 -0.3909  0.0791  0.1355
 5937W        W37153   1.906   2.559  10.143  0.0380 -0.2491 -0.1720
 5938W        W37154   1.006  26.254   8.653  0.0291  0.1048 -0.0407
 5939W        W37155  11.689   9.370   8.025  0.0228 -0.0437 -0.0015
 5940W        W37156  10.593  25.570   2.030  0.2485 -0.0866  0.0368
 5941W        W37157  25.970  19.810   2.302  0.0805  0.2380  0.0086
 5942W        W37158   7.305   2.747   1.953 -0.1487 -0.0863  0.2097
 5943W        W37159  21.448   8.249   1.447  0.0245 -0.2130  0.0488
 5944W        W37160   6.574   3.152   9.704  0.0502  0.0706 -0.1564
 5945W        W37161   3.744  18.965   1.676 -0.2072  0.0383 -0.2417
 5946W        W37162   9.928   6.291   7.777  0.1743  0.0994  0.1841
 5947W        W37163  17.024  10.761   2.192 -0.2992 -0.3848  0.1253
 5948W        W37164  15.790  23.479   8.049 -0.0908 -0.1848 -0.1187
 5949W        W37165   8.270  18.570   9.240  0.3340 -0.0961 -0.2056
 5950W        W37166  13.489  20.390   7.750 -0.0971  0.3340 -0.1572
 5951W        W37167  20.990  14.100   1.337 -0.0836  0.0279  0.1867
 5952W        W37168  12.292  16.321   2.687 -0.2217 -0.1907  0.0126
 5953W        W37169  24.077  14.357   8.254 -0.1473  0.0046 -0.1041
 5954W        W37170   0.142  23.084   2.995  0.1470  0.0689  0.1703
 5955W        W37171   6.081  16.461   3.250 -0.1150 -0.2221  0.2785
 5956W        W37172  18.838   3.444   9.259  0.0198 -0.1869 -0.1100
 5957W        W37173  13.400   9.939   3.034 -0.3844 -0.2448 -0.0736
 5958W        W37174  25.387  21.471   8.140  0.0134 -0.0741 -0.0738
 5959W        W37175  12.322  11.171   9.960 -0.1591 -0.0068  0.2789
 5960W        W37176  13.225  14.560  10.304 -0.2117 -0.0806 -0.0087
 5961W        W37177  13.585  23.185   1.962 -0.0810  0.0852  0.0155
 5962W        W37178  27.459   0.671   0.728 -0.0868 -0.0352  0.0683
 5963W        W37179  25.836  22.162   8.925  0.1451  0.2018 -0.5792
 5964W        W37180  11.196  15.719   8.285 -0.0333 -0.0155 -0.2266
 5965W        W37181  11.205   1.945  10.493 -0.2208  0.0804 -0.1811
 5966W        W37182  17.509  13.523   9.558  0.0331  0.1933  0.2627
 5967W        W37183   6.329  10.689   0.143  0.5336  0.1640  0.0171
 5968W        W37184  14.510  11.165   7.409 -0.0114 -0.1573 -0.0629
 5969W        W37185   2.020  10.245   2.233 -0.0272  0.2997  0.0520
 5970W        W37186  17.374   4.072   9.616  0.0865  0.2284  0.1133
 5971W        W37187   7.503   2.325   8.205  0.3702 -0.3179 -0.1000
 5972W        W37188   9.597  12.221   1.058 -0.1403 -0.2324 -0.3416
 5973W        W37189  23.269  26.761   3.254 -0.1787  0.2732 -0.2376
 5974W        W37190  19.903   5.129  10.269 -0.1648 -0.3297  0.1402
 5975W        W37191   2.078  25.168   8.794 -0.1269  0.0883  0.1922
 5976W        W37192  27.209  22.295  10.358 -0.1201  0.1695 -0.0163
 5977W        W37193   6.281  13.193   0.413  0.0580 -0.1850 -0.1033
 5978W        W37194  13.742  12.270   9.821  0.1701  0.1118 -0.0907
 5979W        W37195   5.207   3.445   7.244 -0.0572  0.3792  0.1070
 5980W        W37196  16.493  25.480   3.630  0.1202  0.1438  0.1826
 5981W        W37197   5.980   5.945  10.220 -0.3201  0.0438  0.0774
 5982W        W37198   0.805   1.958  10.096  0.1081 -0.1479  0.1398
 5983W        W37199  23.249   5.699   0.586 -0.3019  0.0094 -0.0852
 5984W        W37200  27.071  19.576   3.163  0.0102 -0.0982  0.4601
 5985W        W37201  25.078   2.477   8.587 -0.1901 -0.1355  0.2419
 5986W        W37202   9.594   8.333   0.068  0.2765  0.2486 -0.1545
 5987W        W37203  11.428   7.186   3.328  0.1737  0.0497 -0.0087
 5988W        W37204  20.535   4.668   1.082  0.2606 -0.0582  0.1584
 5989W        W37205   5.452  24.203   9.041  0.0028  0.1577  0.0629
 5990W        W37206  26.658  27.349   9.927  0.1639  0.2087 -0.0952
 5991W        W37207  11.199   9.353   1.502  0.1346 -0.2324 -0.0759
 5992W        W37208   2.222  19.762   1.667  0.4653 -0.0098 -0.2848
 5993W        W37209  20.358   9.936   1.289 -0.0537  0.0597  0.0267
 5994W        W37210   1.252   7.772   1.636 -0.1023 -0.2055 -0.0627
 5995W        W37211  18.443  23.047   1.138  0.2106 -0.1513  0.0807
 5996W        W37212  25.901   1.083   2.754  0.3660  0.2637  0.0197
 5997W        W37213  17.350  22.237   9.293 -0.1781 -0.0963 -0.0375
 5998W        W37214   7.972  23.389   2.123  0.0999 -0.3389  0.0480
 5999W        W37215   0.527  10.669   9.664 -0.1924  0.0730  0.0421
 6000W        W37216   4.289  10.542   2.929  0.0242 -0.1127  0.1691
 6001W        W37217   3.534  26.946   0.263  0.3166 -0.2236 -0.1093
 6002W        W37218   8.194  14.103   7.726 -0.0814  0.2197 -0.0571
 6003W        W37219  11.979  25.325   1.734 -0.2414  0.0621 -0.0665
 6004W        W37220  22.279   0.441   0.245 -0.0992 -0.2252  0.0818
 6005W        W37221  19.051  25.347   1.119  0.2453 -0.3276  0.0943
 6006W        W37222   4.956  13.530   0.387  0.0199 -0.2906  0.0105
 6007W        W37223  16.254   9.061   2.736 -0.0206  0.1030  0.2212
 6008W        W37224  16.148   2.343   0.338  0.1139 -0.2330 -0.0096
 6009W        W37225   4.665  17.682   3.441  0.0315  0.0343  0.2228
 6010W        W37226  12.571  22.223   7.980 -0.2218 -0.2355 -0.1946
 6011W        W37227   4.633  10.859   9.750  0.0891 -0.0337  0.0104
 6012W        W37228  20.809  15.159   9.579 -0.1552  0.0461  0.1687
 6013W        W37229  23.477   0.888   7.589  0.1846 -0.1423  0.0162
 6014W        W37230   3.243   1.353   2.984 -0.3209  0.0792  0.1777
 6015W        W37231   0.706  11.249   0.090 -0.0214  0.1255  0.1810
 6016W        W37232  14.760  21.163   1.949  0.1367 -0.0007 -0.0921
 6017W        W37233   3.663  19.238   3.622 -0.0665  0.1053  0.2072
 6018W        W37234   0.227  24.537   2.251  0.2600  0.2921 -0.2376
 6019W        W37235  11.140  17.165   2.879 -0.1818  0.3267 -0.1193
 6020W        W37236  23.796   1.168   7.306  0.2085  0.1150 -0.2923
 6021W        W37237  14.425  15.447   2.385 -0.2163 -0.0788 -0.0888
 6022W        W37238   7.921  26.098   8.851  0.0854 -0.0476  0.4147
 6023W        W37239  14.176  12.774   8.585 -0.0240  0.2798 -0.0918
 6024W        W37240   8.996  21.906   8.994  0.2950  0.1065 -0.0946
 6025W        W37241  19.443   1.642   7.801 -0.0850 -0.1267  0.1582
 6026W        W37242   6.154  16.019   3.526 -0.1332 -0.2263  0.3863
 6027W        W37243  26.619  14.586   3.974 -0.0366  0.0730  0.3323
 6028W        W37244   4.850   9.149   3.514 -0.2037  0.0483 -0.3264
 6029W        W37245   3.608  21.057   8.649  0.1740 -0.0161 -0.2036
 6030W        W37246   2.419   3.781   8.993 -0.0132  0.2375  0.1330
 6031W        W37247  18.928  14.539  10.446 -0.0797  0.1430 -0.0924
 6032W        W37248  26.169   9.894   2.367  0.0414 -0.2356 -0.4672
 6033W        W37249  12.223  18.898   9.715  0.4816 -0.0470  0.0208
 6034W        W37250   7.914  18.916   9.532  0.3100 -0.2146 -0.0304
 6035W        W37251   6.676  27.155   9.332  0.2006  0.0754  0.1020
 6036W        W37252  19.070  11.088   7.830  0.0009 -0.0541  0.1154
 6037W        W37253  24.404   0.796   2.350 -0.2354  0.1794 -0.2149
 6038W        W37254  16.262   9.341   7.786  0.3458  0.1164 -0.1923
 6039W        W37255  15.664   3.476  10.425 -0.0679 -0.1203  0.1134
 6040W        W37256  10.107   6.361   9.880 -0.0368  0.0404  0.2449
 6041W        W37257  23.262   4.256   1.143 -0.0217  0.2012  0.2979
 6042W        W37258  19.840  20.998   9.077 -0.0530 -0.1442 -0.0655
 6043W        W37259  27.240   4.829   8.821  0.0557  0.0949  0.0885
 6044W        W37260  12.405  23.985   1.635 -0.2521  0.3047 -0.0428
 6045W        W37261  13.894   7.317   1.776  0.0760 -0.1836  0.0612
 6046W        W37262  10.207   8.486   1.645 -0.3908  0.2206 -0.0245
 6047W        W37263   0.383  11.043   3.212  0.1871 -0.2414  0.2876
 6048W        W37264  19.173  25.530   9.746  0.0065  0.1734  0.2580
 6049W        W37265  18.367  21.829   3.724  0.1767  0.2673 -0.1041
 6050W        W37266   7.856   1.830   0.487 -0.2714  0.1504 -0.1370
 6051W        W37267   5.460  21.828   1.139  0.0979 -0.0175  0.2349
 6052W        W37268   3.731   9.895   2.789  0.1424 -0.1430  0.1937
 6053W        W37269  25.955  19.918   9.348  0.1875 -0.2344 -0.0502
 6054W        W37270   4.562   0.395   3.029 -0.0155  0.2305  0.1971
 6055W        W37271   2.140  18.365   0.451  0.1468 -0.0497  0.2889
 6056W        W37272  11.043  26.135   8.511 -0.0295 -0.2543  0.2255
 6057W        W37273  17.744  14.882  10.240  0.1373 -0.1322  0.1232
 6058W        W37274  26.135  25.146   9.841  0.0891 -0.0234 -0.3104
 6059W        W37275  21.073   6.117   2.317 -0.0797 -0.1328  0.0205
 6060W        W37276  16.876   5.463   2.466  0.1743  0.1365  0.1963
 6061W        W37277   5.688  14.705   9.489  0.0801 -0.2924 -0.0490
 6062W        W37278  16.570   8.402   2.047  0.3618  0.1874  0.0557
 6063W        W37279   9.619  17.778   1.676 -0.1648  0.2033  0.0577
 6064W        W37280  20.022   1.014   8.702 -0.0391 -0.1326  0.1534
 6065W        W37281  17.296   7.772   0.378  0.0105 -0.2470 -0.0348
 6066W        W37282  11.488  25.943   8.097  0.2398  0.1390 -0.0283
 6067W        W37283  22.863  25.944   2.284  0.1023  0.1171 -0.2820
 6068W        W37284  23.485  23.638   2.674 -0.2760  0.1711 -0.1195
 6069W        W37285   0.998   5.433   3.624 -0.2366 -0.1489  0.1329
 6070W        W37286   0.776  21.498   2.665  0.1379  0.3381  0.1065
 6071W        W37287  25.128   2.807   4.140 -0.1184  0.1820 -0.1252
 6072W        W37288  19.597  23.386   7.618  0.0535  0.2044 -0.3926
 6073W        W37289   2.199  26.639   2.555 -0.2736  0.1897 -0.0425
 6074W        W37290   1.620  13.531   0.622 -0.1891  0.0163 -0.2262
 6075W        W37291   8.420  25.604   7.358  0.0274  0.0492 -0.3754
 6076W        W37292   0.188  24.774   0.413 -0.0811 -0.1415  0.2341
 6077W        W37293  16.428  23.627   3.971 -0.1207 -0.1070  0.1013
 6078W        W37294  18.626  17.693   9.791  0.0782  0.0318  0.3484
 6079W        W37295  19.358  12.035   0.937 -0.0199 -0.0940 -0.5876
 6080W        W37296  12.363  13.791   8.771  0.1617 -0.0468 -0.0614
 6081W        W37297   6.963  14.086   9.217 -0.0282 -0.3129 -0.0882
 6082W        W37298   6.255  16.392   0.474 -0.2511 -0.0673  0.0336
 6083W        W37299   1.377   5.384   0.307  0.1903  0.0444 -0.0682
 6084W        W37300  12.987   7.499   3.595 -0.1481  0.1628 -0.0755
 6085W        W37301   9.624  26.109   2.137 -0.2035 -0.0707 -0.0044
 6086W        W37302   1.399  19.034   1.155 -0.0488 -0.2092  0.1545
 6087W        W37303  25.486   3.229   9.844 -0.1522  0.0630 -0.0757
 6088W        W37304   0.299  27.100   3.566  0.1084  0.1445 -0.0985
 6089W        W37305   4.707   0.704   9.576  0.1490 -0.3945 -0.0972
 6090W        W37306   1.458  18.323   3.110 -0.1197  0.0795 -0.0769
 6091W        W37307  11.284  26.290   7.695  0.1727 -0.1859  0.1617
 6092W        W37308   7.157  10.016  10.435 -0.3508  0.0109 -0.0942
 6093W        W37309   8.153  10.845   7.410  0.2104 -0.0903  0.0748
 6094W        W37310  10.473  26.152   8.412  0.1076 -0.2427 -0.3343
 6095W        W37311  13.071   5.609   2.920  0.2117 -0.2100 -0.0242
 6096W        W37312  21.133  10.909   1.290  0.4308  0.0644  0.0646
 6097W        W37313  14.068  16.054   1.501 -0.1726  0.1620 -0.0270
 6098W        W37314   4.300  21.460   3.255  0.2187  0.0747  0.1484
 6099W        W37315  16.781   1.210   1.996  0.0913  0.0604 -0.2266
 6100W        W37316  15.374  18.328   0.304 -0.0400  0.1693  0.2916
 6101W        W37317   4.828   9.963   9.950 -0.0001  0.3010 -0.1849
 6102W        W37318  23.079   6.237   1.156 -0.3706 -0.1897 -0.2109
 6103W        W37319  24.292  10.900  10.105 -0.0784  0.4387 -0.4360
 6104W        W37320  15.691   6.875   3.003 -0.0686  0.0044  0.1254
 6105W        W37321  20.756  23.430   0.075  0.0895 -0.0146 -0.2584
 6106W        W37322  22.233  26.766   7.297 -0.3516  0.0292  0.0905
 6107W        W37323   5.828   5.375   0.406  0.4629 -0.0314  0.1115
 6108W        W37324   5.216   0.626   1.414 -0.0234  0.0716 -0.0305
 6109W        W37325  24.154  20.691   7.840  0.0488 -0.2316 -0.0575
 6110W        W37326   7.078  14.290   2.020  0.0733 -0.1754 -0.3120
 6111W        W37327   2.544  25.270   2.206 -0.1783 -0.0760 -0.0477
 6112W        W37328  20.582   2.464   2.192 -0.1427  0.0830  0.1863
 6113W        W37329  17.445  23.046   8.495 -0.0316 -0.2631  0.0395
 6114W        W37330  25.097   5.319   8.228  0.0449 -0.4540 -0.0231
 6115W        W37331  10.719  10.260   2.367 -0.0484 -0.1025 -0.1940
 6116W        W37332  19.149  27.439   3.575  0.1860  0.2068  0.0759
 6117W        W37333  21.333  19.974   1.033 -0.2608 -0.0148 -0.0868
 6118W        W37334   4.133   8.753   2.282  0.2310 -0.1163 -0.0941
 6119W        W37335   5.009  24.630   0.866  0.2245  0.1341  0.0220
 6120W        W37336  22.429  18.418   2.190 -0.0221 -0.0276  0.3369
 6121W        W37337   6.445   1.851   1.783 -0.1773  0.1095  0.2891
 6122W        W37338   0.469  21.033   2.777 -0.0921 -0.3713  0.0723
 6123W        W37339   4.293   3.386   0.850 -0.0058 -0.1991 -0.2492
 6124W        W37340  26.361   1.381   1.505  0.0926 -0.1887 -0.1779
 6125W        W37341  16.015   8.490   0.201 -0.2240 -0.0642 -0.1437
 6126W        W37342   1.880   0.129   1.270 -0.0198 -0.1071  0.0028
 6127W        W37343  26.042  24.695   9.662  0.0260  0.0113  0.1153
 6128W        W37344  12.438  13.838   7.495  0.2773  0.0698 -0.0242
 6129W        W37345   2.661  17.406   9.957  0.2369  0.0563 -0.0593
 6130W        W37346  23.573  26.007   2.849 -0.2457  0.2378 -0.2977
 6131W        W37347  22.627  19.202   7.728 -0.1369  0.2770 -0.3023
 6132W        W37348  13.913  15.185   1.686 -0.0831 -0.1208  0.1268
 6133W        W37349  19.061  19.141   8.485  0.1940 -0.1665  0.1395
 6134W        W37350  20.283  11.534   8.717  0.0136 -0.1540 -0.0092
 6135W        W37351  10.586   8.899  10.052 -0.3124  0.1715  0.1863
 6136W        W37352   4.674   0.969   7.619 -0.1503 -0.0934  0.0367
 6137W        W37353  11.025  21.516   7.603 -0.1259  0.1708 -0.3452
 6138W        W37354   4.859  11.489   0.637  0.1049 -0.0943 -0.1871
 6139W        W37355  19.862   8.579   1.003 -0.2051 -0.1622 -0.1168
 6140W        W37356   8.933   6.712   9.728 -0.0110 -0.2238 -0.1396
 6141W        W37357   3.841  17.494   7.817  0.1381 -0.2061  0.1822
 6142W        W37358  26.753  10.839   7.807  0.1647  0.1638  0.1314
 6143W        W37359  13.092   4.803   7.890 -0.0711 -0.0688  0.1653
 6144W        W37360  18.734   6.599   2.224 -0.2469  0.0871  0.2754
 6145W        W37361   0.610   7.226   3.163  0.0244 -0.1272 -0.1910
 6146W        W37362  22.402  21.798   3.772 -0.3296 -0.1277  0.0606
 6147W        W37363   1.114  20.728   1.095 -0.0957 -0.3478 -0.0503
 6148W        W37364  18.380  13.264   1.825 -0.0912 -0.0363  0.5143
 6149W        W37365  18.993   7.351  10.019 -0.0248 -0.0619  0.1038
 6150W        W37366   8.113  16.823   2.134 -0.0600 -0.2612 -0.1020
 6151W        W37367  25.496  22.662   1.647  0.3833  0.3290  0.0652
 6152W        W37368  10.352  24.044   8.711 -0.2155 -0.0368 -0.0637
 6153W        W37369  24.217  21.103   8.954 -0.3424  0.1979  0.1384
 6154W        W37370  13.356   4.248   2.635 -0.3084 -0.0989  0.3478
 6155W        W37371   0.914  15.919   9.955 -0.0329  0.2577 -0.0745
 6156W        W37372  16.537   3.561   2.166 -0.2601  0.1192  0.2347
 6157W        W37373  23.377  23.707   8.202  0.1143  0.0744 -0.0443
 6158W        W37374  24.799   2.641  10.387 -0.0362 -0.1972  0.1913
 6159W        W37375  14.604  21.019   8.932  0.0990 -0.0121  0.1924
 6160W        W37376  11.220  11.094   0.426 -0.0800 -0.0651  0.3639
 6161W        W37377  19.883   0.760   0.003 -0.0110 -0.0200 -0.4511
 6162W        W37378  14.897  21.044   9.325 -0.0458  0.2152 -0.0179
 6163W        W37379   5.091   4.097   8.931  0.0182  0.1100  0.0767
 6164W        W37380  23.026  21.732   0.961  0.3288  0.0676  0.1683
 6165W        W37381  20.759  17.483   0.473 -0.0577  0.0735 -0.1576
 6166W        W37382  20.389  12.438  10.060  0.1864  0.1458  0.4273
 6167W        W37383  14.953  25.544   4.062  0.0877 -0.0095 -0.0262
 6168W        W37384  24.102  22.607   7.839  0.0854  0.0989 -0.4655
 6169W        W37385  19.910   3.169   2.334 -0.1743  0.1148 -0.0502
 6170W        W37386  11.240  15.125   0.603 -0.0926 -0.1776  0.0314
 6171W        W37387  23.901  18.146   9.840  0.0832  0.0734 -0.0402
 6172W        W37388   5.873  20.220   8.226 -0.1885 -0.0303 -0.1445
 6173W        W37389  21.982  13.236  10.485  0.1027 -0.2319 -0.1238
 6174W        W37390  15.966   9.486   0.955  0.0756  0.1321 -0.0175
 6175W        W37391   6.798  18.250   9.862  0.0203 -0.2686  0.0706
 6176W        W37392   9.888  11.209   1.935  0.1388  0.2110 -0.0522
 6177W        W37393  26.011  15.417   0.110 -0.1457  0.0744  0.2129
 6178W        W37394  22.708   6.470   1.475  0.0953  0.2031  0.2795
 6179W        W37395   0.382  13.838   0.402 -0.0450 -0.2816 -0.2479
 6180W        W37396   7.254   3.927   1.410  0.1391  0.1505  0.3305
 6181W        W37397  17.583  20.525  10.153  0.1598  0.0509 -0.2129
 6182W        W37398  21.533   6.555   7.260 -0.1301 -0.1732  0.0130
 6183W        W37399  17.495  21.056   0.291 -0.0378  0.1664 -0.0573
 6184W        W37400  17.393  25.916   0.617 -0.0543  0.1174  0.0455
 6185W        W37401   6.057   5.325   1.558  0.1540  0.2246 -0.1123
 6186W        W37402   3.809   6.917   1.743  0.1265  0.0824  0.0688
 6187W        W37403   5.745  27.559   7.954 -0.2745  0.1965  0.1125
 6188W        W37404  25.151  20.057   1.937  0.1077  0.3457  0.0971
 6189W        W37405  21.602   3.283   2.043  0.4021  0.1931 -0.4868
 6190W        W37406   2.862  12.897   2.729  0.0536 -0.0944  0.0045
 6191W        W37407  18.726  16.106   8.684 -0.0778  0.1098 -0.2720
 6192W        W37408  25.415   8.989   8.960 -0.1434 -0.0511  0.1985
 6193W        W37409  14.044  23.172   1.764 -0.0897  0.0169 -0.0731
 6194W        W37410   7.140  24.997   0.713  0.3439 -0.0660  0.0295
 6195W        W37411   6.554  13.543   3.032  0.2799  0.2563 -0.4074
 6196W        W37412  15.614  12.172   9.511 -0.2687 -0.1388  0.0905
 6197W        W37413  22.827  25.255   1.850 -0.0991 -0.0500  0.2400
 6198W        W37414  13.694  14.056   9.157 -0.0916 -0.0288  0.1310
 6199W        W37415  14.535  23.949  10.037 -0.0628 -0.1745  0.1304
 6200W        W37416  21.168  25.811   0.438 -0.2495 -0.0507  0.0429
 6201W        W37417  18.609   7.331   2.242  0.1634  0.1977 -0.3116
 6202W        W37418   9.022  23.601   9.919  0.2086 -0.2744 -0.3028
 6203W        W37419  20.693   9.433   4.070 -0.2249 -0.3026 -0.1332
 6204W        W37420  15.973  19.201   0.072 -0.5787  0.1075  0.1173
 6205W        W37421   4.917   4.544   7.911  0.4509  0.1716  0.0677
 6206W        W37422  14.888   6.242   3.584 -0.2262 -0.1579 -0.0894
 6207W        W37423  20.515   9.293   8.068 -0.0388 -0.0671  0.1318
 6208W        W37424   7.426   0.185   8.915 -0.1197 -0.1393  0.0833
 6209W        W37425  20.833   2.848   0.806 -0.1615 -0.1602 -0.0334
 6210W        W37426  17.240  21.349   0.698  0.0037  0.0663 -0.1205
 6211W        W37427  17.292  19.808   9.482 -0.1163 -0.1165 -0.1004
 6212W        W37428  22.697   2.797   1.366 -0.0044 -0.2449 -0.2667
 6213W        W37429  13.590  23.068  10.439  0.2303  0.0992 -0.0456
 6214W        W37430  17.703  14.035   8.488  0.1249 -0.0900 -0.2944
 6215W        W37431   5.791  14.036   7.086  0.1179  0.0814  0.1294
 6216W        W37432   5.302  22.079   8.384 -0.1099 -0.0391  0.0505
 6217W        W37433  25.302  15.538   9.734  0.1555 -0.1143 -0.2737
 6218W        W37434   2.256  12.188   0.330 -0.1519  0.1285  0.1471
 6219W        W37435  25.270  23.263  10.491 -0.0944  0.3733 -0.3082
 6220W        W37436  20.854  21.914   1.275 -0.1480  0.0939  0.1352
 6221W        W37437   2.727  13.783   7.934  0.0062  0.1995 -0.1899
 6222W        W37438  17.232   3.389   2.799  0.0576  0.2304 -0.3159
 6223W        W37439  17.628  12.846   2.418  0.2502 -0.1582 -0.1021
 6224W        W37440  13.126   0.608   0.756  0.0278  0.2399  0.1416
 6225W        W37441  14.821  10.473   2.371  0.2783  0.3634  0.2168
 6226W        W37442  17.700   6.589   2.604  0.1597 -0.2560 -0.0691
 6227W        W37443  20.748   0.797   0.714  0.2812 -0.0526  0.1397
 6228W        W37444  14.105  11.613   2.066  0.2256 -0.1185 -0.0285
 6229W        W37445  14.632  18.696   9.225 -0.0251 -0.0195  0.0953
 6230W        W37446   1.635  11.990   8.649  0.0340 -0.1108  0.1069
 6231W        W37447  15.310  19.158   9.836 -0.0627  0.0463  0.0733
 6232W        W37448   9.772   8.812   0.469  0.0241  0.1068  0.2942
 6233W        W37449  15.752   1.302   9.727  0.0637 -0.0866  0.2742
 6234W        W37450  10.262  20.503   2.995  0.1662 -0.1529  0.0225
 6235W        W37451  26.068   2.881   3.886  0.1020  0.2552 -0.0056
 6236W        W37452  16.393   9.470   0.342  0.0096 -0.0245 -0.2594
 6237W        W37453  18.830   4.299   0.791 -0.0523 -0.0886  0.0300
 6238W        W37454   6.182  21.384   3.957 -0.0577 -0.2332 -0.1305
 6239W        W37455  26.015  24.385   9.264  0.1768  0.3243  0.0142
 6240W        W37456  13.921  24.225   2.562  0.0400 -0.1244  0.1701
 6241W        W37457  16.122  11.909   8.463 -0.3166  0.0963 -0.2797
 6242W        W37458  11.676  20.685   9.018  0.3829  0.2120 -0.1764
 6243W        W37459  17.519  24.379   8.373  0.1002 -0.1836  0.1709
 6244W        W37460  24.039  27.332   9.326  0.0467 -0.1416  0.1647
 6245W        W37461   4.895   7.289   0.956 -0.2362 -0.1263  0.0943
 6246W        W37462   0.149  15.446   8.248 -0.0290  0.1485  0.0187
 6247W        W37463   4.723  10.784   9.109  0.0964 -0.2097 -0.0245
 6248W        W37464  12.515   7.149   2.060  0.0272 -0.1325  0.0715
 6249W        W37465  24.160  13.875   7.979  0.0873 -0.3101 -0.0069
 6250W        W37466  15.827   5.365   1.874 -0.0004 -0.1255  0.2378
 6251W        W37467   9.724  23.907   9.884 -0.4134  0.1624  0.0657
 6252W        W37468  16.313  17.622   2.116 -0.0824 -0.0890  0.1527
 6253W        W37469  25.421   4.551   9.699 -0.0383 -0.2161  0.2430
 6254W        W37470  12.285   4.133   9.708 -0.2543 -0.0840  0.1149
 6255W        W37471   9.100  23.595   0.903 -0.0680 -0.0739  0.2054
 6256W        W37472  11.076  23.525   8.011 -0.3329 -0.4889 -0.1046
 6257W        W37473  19.700  19.846   2.632 -0.2370  0.2771  0.0364
 6258W        W37474   3.108  15.652   9.479 -0.1452 -0.2248  0.1811
 6259W        W37475  11.352   4.560  10.298 -0.1761 -0.1395 -0.3537
 6260W        W37476  13.547   8.980   2.195 -0.1017 -0.1673 -0.0114
 6261W        W37477  21.785  15.659   0.544 -0.0067  0.0810  0.3784
 6262W        W37478   2.477  20.714   1.879  0.3324 -0.1596 -0.1113
 6263W        W37479   8.486  11.998   9.613  0.0161 -0.2688  0.1179
 6264W        W37480  19.349   7.716   9.854  0.3408  0.0171 -0.0988
 6265W        W37481   5.054   4.647   9.627 -0.0156 -0.3725  0.2285
 6266W        W37482   1.086  12.249   8.430  0.1060 -0.0525 -0.0685
 6267W        W37483   3.679  26.551   1.304  0.0828 -0.1279 -0.1710
 6268W        W37484  21.323  20.420   2.713  0.0947 -0.1216 -0.0741
 6269W        W37485  25.185  15.547   2.860  0.4228 -0.2766 -0.0760
 6270W        W37486  22.987  12.521   3.701  0.1238 -0.1734  0.1829
 6271W        W37487  14.731   5.254   8.953  0.5285 -0.2315  0.0431
 6272W        W37488   3.305  25.989   9.419 -0.1977  0.5153 -0.2916
 6273W        W37489   6.000   0.530   8.280 -0.1021 -0.2433 -0.1418
 6274W        W37490  10.235  26.045   1.969  0.0500  0.0575 -0.2109
 6275W        W37491  20.938   6.879   7.484 -0.3087 -0.3393  0.0242
 6276W        W37492  23.392   5.633   9.495 -0.3726 -0.2199 -0.0805
 6277W        W37493   2.460  23.357   2.923  0.2364  0.2412  0.1100
 6278W        W37494   7.215  12.348   7.942 -0.1223  0.0117 -0.0771
 6279W        W37495  11.492   4.807   1.985 -0.2661 -0.2451  0.1797
 6280W        W37496  26.741  13.272   9.754  0.0301 -0.0876  0.1867
 6281W        W37497  22.959  14.437   0.691  0.0839  0.0647  0.1282
 6282W        W37498   7.717   1.778   2.198  0.0111 -0.0693 -0.1625
 6283W        W37499  21.288  17.719   2.158 -0.0644  0.1501 -0.5112
 6284W        W37500  17.114  15.387   1.572  0.1146 -0.2914  0.0153
 6285W        W37501  13.984  25.713   0.435 -0.0212  0.0340  0.0722
 6286W        W37502   8.918   1.440   0.628  0.0787 -0.0481  0.2513
 6287W        W37503   3.255  24.659   3.151  0.0142  0.1729  0.3612
 6288W        W37504  14.185  10.141   1.054 -0.4109  0.0910  0.1751
 6289W        W37505  12.583   9.010   1.075  0.2795 -0.1812  0.2446
 6290W        W37506   7.628  15.756   7.159  0.1411 -0.2219 -0.1090
 6291W        W37507  13.227   7.435   3.098  0.2264 -0.0290 -0.0020
 6292W        W37508  15.605  14.779   9.612  0.2675  0.0696 -0.0089
 6293W        W37509  20.184  20.683   8.447  0.0188 -0.3029  0.0000
 6294W        W37510  11.966  26.497   2.969 -0.0611 -0.0472 -0.1538
 6295W        W37511  23.641   2.529   9.654  0.3375  0.1580  0.1265
 6296W        W37512   2.317  11.746   8.056  0.0141 -0.1325 -0.0139
 6297W        W37513  27.112  21.162   8.220  0.0471  0.1528 -0.2723
 6298W        W37514   8.213  17.705   2.246 -0.1100  0.0353 -0.0360
 6299W        W37515   5.141  13.170   0.016 -0.0202 -0.0523 -0.2166
 6300W        W37516  24.168  11.878   0.020 -0.0085 -0.3819  0.0146
 6301W        W37517  20.055   2.793   2.667 -0.2777 -0.2614 -0.2071
 6302W        W37518   7.725   3.977   0.083 -0.1234  0.2364  0.2232
 6303W        W37519  25.060   0.647   8.719  0.0665  0.4279  0.1853
 6304W        W37520   7.819  12.777  10.489 -0.1170  0.3128  0.1213
 6305W        W37521  14.243  13.480   9.793  0.1965  0.0064  0.0520
 6306W        W37522  19.915  21.018   7.638 -0.0943  0.1817  0.0346
 6307W        W37523   3.239  13.101  10.396  0.0418 -0.3164  0.0637
 6308W        W37524  22.648  14.333   1.171  0.3154 -0.3057  0.0566
 6309W        W37525  11.368  17.226   1.100 -0.0422 -0.0284 -0.2065
 6310W        W37526  18.473  17.406   8.268 -0.0604  0.0829  0.1039
 6311W        W37527  17.490   5.666   9.331 -0.0536 -0.0239  0.3361
 6312W        W37528  20.052  25.808   7.992  0.1895 -0.1306 -0.1966
 6313W        W37529  10.323  11.641   7.864 -0.3130  0.2012 -0.0231
 6314W        W37530  25.827  20.697   1.884  0.1387 -0.0103 -0.2295
 6315W        W37531  17.456   6.105   1.050 -0.0177  0.0458  0.1400
 6316W        W37532   3.964   4.015   0.517 -0.0208 -0.2471  0.1593
 6317W        W37533   0.861   7.353   2.731  0.7893 -0.0383 -0.1189
 6318W        W37534  17.782   4.648   1.771  0.0941  0.0056 -0.0045
 6319W        W37535  10.575  18.351   9.114  0.0530 -0.2689 -0.0549
 6320W        W37536   7.940   2.637   8.908  0.1378 -0.2720  0.0631
 6321W        W37537   5.811   5.265   9.105  0.0316  0.2540 -0.0499
 6322W        W37538  14.916  21.659   2.426 -0.0150  0.1831  0.0938
 6323W        W37539   5.926   9.981   0.353 -0.0993  0.0706 -0.3544
 6324W        W37540   2.738  16.687   2.986 -0.1970 -0.0478  0.5363
 6325W        W37541  26.604  12.728   1.526  0.2451  0.0343 -0.0387
 6326W        W37542  10.318   4.675   8.177 -0.4784  0.1743  0.1465
 6327W        W37543   5.292  19.942   0.284 -0.0998 -0.4350  0.2162
 6328W        W37544   1.589  11.723   9.706  0.3105  0.2640  0.1807
 6329W        W37545  25.329  17.897   1.863  0.0777  0.3039 -0.0199
 6330W        W37546  21.934  21.532   3.209  0.2491 -0.2143 -0.1341
 6331W        W37547   7.375  11.917   2.845 -0.0972 -0.0356 -0.4482
 6332W        W37548   0.766   9.853   2.376  0.1783 -0.0718  0.0399
 6333W        W37549  16.444   8.564   0.928  0.3223 -0.0915  0.1933
 6334W        W37550   1.283  16.445   2.851 -0.0397  0.0831 -0.0345
 6335W        W37551   8.904  25.741   8.721  0.0933  0.0394  0.5119
 6336W        W37552  26.795  15.531  10.073 -0.0815  0.2583  0.0643
 6337W        W37553  23.581  21.660   9.361 -0.0670 -0.2522  0.4127
 6338W        W37554  15.093   4.618   8.257 -0.0557 -0.0150  0.0917
 6339W        W37555  20.820  21.682   0.182  0.0847  0.3919  0.0806
 6340W        W37556  25.774  27.027   0.242 -0.4227  0.2721  0.2206
 6341W        W37557   5.667  15.501   9.667 -0.0057 -0.1131 -0.1644
 6342W        W37558  18.369  11.103   8.163 -0.2441 -0.0837  0.4033
 6343W        W37559  19.595  18.113   3.463 -0.1180 -0.3475 -0.0915
 6344W        W37560   0.365   3.340   7.410  0.3485 -0.0511 -0.0298
 6345W        W37561   2.877   2.666   0.239  0.1458  0.0183  0.3065
 6346W        W37562   1.955   0.989   3.321 -0.3684 -0.4166 -0.4022
 6347W        W37563  24.564  24.225   0.212 -0.0589  0.0821  0.1182
 6348W        W37564  24.795   4.363   8.995  0.0512 -0.0341 -0.1179
 6349W        W37565  14.243  20.291   7.328  0.0644 -0.0349 -0.0775
 6350W        W37566   0.195   3.968   0.592 -0.1534  0.1657  0.1690
 6351W        W37567  23.847  23.969   2.467  0.1466  0.0665 -0.1296
 6352W        W37568  14.032  13.734   9.457  0.0173  0.0247  0.2022
 6353W        W37569  12.718   5.829   9.261 -0.0762  0.4108 -0.2252
 6354W        W37570   9.252  10.909  10.178 -0.3872  0.1396  0.0106
 6355W        W37571   7.404  18.454   8.729 -0.1061  0.0483  0.0807
 6356W        W37572   9.615  18.291   8.344  0.1367 -0.2187  0.1766
 6357W        W37573  10.965  17.327   3.405  0.2356  0.0458 -0.0102
 6358W        W37574  17.942  22.181   8.760 -0.2096 -0.3914 -0.1361
 6359W        W37575   3.899  17.386   8.284  0.0862  0.0352 -0.2358
 6360W        W37576  20.349  19.252   0.244 -0.1375 -0.1813  0.3363
 6361W        W37577  20.204  25.262  10.139 -0.0732  0.2051  0.0525
 6362W        W37578  17.726  17.076   9.692  0.1289 -0.0482  0.1500
 6363W        W37579  17.741   2.621   9.586 -0.0805 -0.0973 -0.1262
 6364W        W37580  15.860   1.398   2.598  0.2470  0.0596 -0.1795
 6365W        W37581  22.482  26.694   2.192  0.1546  0.4683  0.1712
 6366W        W37582  16.963   4.085   3.347  0.1389 -0.0209 -0.0955
 6367W        W37583  25.530  14.223   8.743  0.0120  0.1366 -0.0992
 6368W        W37584  24.233   0.290   9.197  0.0129  0.0452  0.0512
 6369W        W37585   6.733  22.626   9.935 -0.2377 -0.2508  0.1726
 6370W        W37586  19.525   7.767   0.373 -0.2295 -0.0649 -0.1012
 6371W        W37587  16.743   5.464   8.486  0.4493  0.2012  0.1475
 6372W        W37588  16.530   9.615   8.191  0.0173  0.0273 -0.0532
 6373W        W37589  27.462   9.053   1.793  0.0670 -0.0618  0.1823
 6374W        W37590  19.402  26.111   9.650  0.0380 -0.4610  0.2387
 6375W        W37591  10.718  15.384   2.558 -0.0345 -0.1395 -0.2959
 6376W        W37592  25.979  23.167   7.213 -0.0635 -0.0745  0.0885
 6377W        W37593  23.404  13.919   3.681  0.0236 -0.0870  0.0080
 6378W        W37594  19.918   1.794   8.381 -0.0404 -0.0011 -0.3152
 6379W        W37595  10.474   1.132   0.961  0.0690 -0.0754  0.1834
 6380W        W37596   3.790  27.007   1.055  0.0382  0.1632 -0.1396
 6381W        W37597  22.708  23.532  10.160 -0.0183  0.1255 -0.0304
 6382W        W37598   6.211   3.232   1.087 -0.1907 -0.0324 -0.0361
 6383W        W37599  11.499   7.354   0.730  0.2962 -0.2163 -0.1586
 6384W        W37600  16.355   9.473   1.369 -0.0433  0.2834  0.0541
 6385W        W37601   7.217  20.752   8.486  0.2082  0.0332 -0.1725
 6386W        W37602   0.959   0.922   1.976  0.0966  0.0803  0.0492
 6387W        W37603  26.491  24.551  10.278 -0.2439  0.4680 -0.1019
 6388W        W37604  24.980  11.631   9.638  0.0436 -0.2505  0.0662
 6389W        W37605  13.625  11.151   1.265  0.1165 -0.2962  0.2216
 6390W        W37606  21.462   9.793   8.291 -0.2940  0.0916  0.3094
 6391W        W37607   8.704   5.693   8.562 -0.1145 -0.2230  0.2331
 6392W        W37608  21.044  19.691   7.068 -0.0183  0.2227  0.1122
 6393W        W37609  23.654   7.636   0.782  0.1359  0.0946  0.0846
 6394W        W37610  13.593  14.671   9.160 -0.1306  0.0720  0.1863
 6395W        W37611   5.231   5.938   7.887 -0.0211 -0.0135  0.1517
 6396W        W37612  16.536   4.963   1.519 -0.1998 -0.0978 -0.0995
 6397W        W37613  19.188  15.868   8.084  0.1846  0.3583 -0.0096
 6398W        W37614  20.335  13.289   1.513  0.3089 -0.0464 -0.0277
 6399W        W37615  10.844  20.033   9.837 -0.1847 -0.1248  0.1490
 6400W        W37616  19.160   1.232   3.096  0.3463  0.2968 -0.0398
 6401W        W37617  24.100   2.058   2.439 -0.3114 -0.3980 -0.1437
 6402W        W37618   4.230  15.504   2.456 -0.5376  0.0082 -0.2040
 6403W        W37619  18.697   2.638   9.475 -0.1296  0.3248  0.0340
 6404W        W37620  21.935   9.069   1.066 -0.1106  0.1241  0.1793
 6405W        W37621  18.561   1.967   0.131  0.1256 -0.0694  0.3024
 6406W        W37622   6.694  18.092   2.366 -0.1205 -0.1108 -0.0715
 6407W        W37623   1.024  10.465   3.143 -0.1817  0.0230  0.0110
 6408W        W37624   9.045  26.259   8.634  0.3133  0.1100 -0.2172
 6409W        W37625  17.169  27.253   9.000 -0.1398  0.1811 -0.0832
 6410W        W37626  22.932   2.397   0.010  0.0711  0.2052  0.2155
 6411W        W37627  18.976  24.161  10.435  0.0379  0.1509 -0.0299
 6412W        W37628  25.529  10.141   0.623  0.1008  0.1171 -0.3802
 6413W        W37629   1.822  21.454  10.016  0.0780 -0.0094 -0.0451
 6414W        W37630   2.682  18.764   9.962 -0.3668 -0.0639 -0.0553
 6415W        W37631  11.003  18.738   9.592 -0.1075 -0.3585  0.0179
 6416W        W37632   4.785   3.148   0.951  0.2029  0.0939 -0.4871
 6417W        W37633   3.369  18.178   8.741 -0.1315 -0.0877  0.2849
 6418W        W37634  23.150   6.144   3.529  0.1170 -0.1293 -0.1265
 6419W        W37635  24.000   4.245   3.789 -0.0777  0.0295  0.0305
 6420W        W37636   7.334  11.467   2.508 -0.0995 -0.1138 -0.0896
 6421W        W37637   7.141  10.225   0.664 -0.2651 -0.0793  0.1633
 6422W        W37638   1.716  20.292   9.404  0.0485 -0.1375  0.1692
 6423W        W37639  16.863   5.830   9.310 -0.0329  0.0511  0.2836
 6424W        W37640   8.821  15.415   2.650 -0.0382 -0.0997  0.1796
 6425W        W37641  27.006   4.406   8.726  0.0487  0.3667 -0.1815
 6426W        W37642  21.359  25.572   7.703  0.2078  0.2127  0.0390
 6427W        W37643  23.153  18.553   1.717  0.0245 -0.1072 -0.0533
 6428W        W37644  13.518  21.612   0.848 -0.2489  0.0681  0.3761
 6429W        W37645  13.525  12.317   2.008 -0.1787 -0.0754 -0.0718
 6430W        W37646   1.478   2.421  10.418  0.0498 -0.0327  0.4730
 6431W        W37647  22.260   1.835   9.455 -0.0788  0.3281 -0.1045
 6432W        W37648  16.062  27.375   7.956  0.0988 -0.2459  0.0097
 6433W        W37649  22.382  17.593   1.170  0.0993  0.2259 -0.0029
 6434W        W37650  23.287   8.923   1.267 -0.2901  0.1331  0.1936
 6435W        W37651  12.768  17.951   0.208  0.1033  0.0252 -0.1201
 6436W        W37652  25.768   6.473   2.453  0.0078  0.2955 -0.0287
 6437W        W37653  12.065   0.232   2.468 -0.0073 -0.1468  0.2393
 6438W        W37654  15.555   6.267   9.073  0.1104 -0.0498  0.2044
 6439W        W37655  21.369   3.953  10.378 -0.0438 -0.1897  0.3002
 6440W        W37656  21.398  27.566   0.691 -0.4510 -0.3017  0.0456
 6441W        W37657   5.149  15.035   0.948 -0.3256 -0.2074  0.3204
 6442W        W37658  24.043  13.783  10.119 -0.1498  0.0976 -0.2074
 6443W        W37659  13.435  24.417   2.314  0.0538  0.0586  0.0252
 6444W        W37660   5.660  17.663  10.209 -0.1064 -0.0996 -0.1043
 6445W        W37661  27.206   6.980   2.351 -0.0344  0.0543  0.0760
 6446W        W37662  18.228   4.425   1.186 -0.0068  0.2394 -0.1787
 6447W        W37663   3.316   1.266   1.369 -0.0457  0.0256  0.1070
 6448W        W37664   7.498  25.763   0.931 -0.2027 -0.3860  0.1034
 6449W        W37665  25.444  22.366   9.122 -0.0052  0.0938  0.0582
 6450W        W37666   8.734   9.231   7.696  0.1557  0.2656  0.0897
 6451W        W37667  13.140  10.458   1.579  0.0802  0.0071 -0.0082
 6452W        W37668  16.879  17.527  10.176  0.0794  0.1453 -0.0004
 6453W        W37669  25.901  19.427   8.359  0.0595 -0.1171 -0.0506
 6454W        W37670   9.389   2.139   3.536 -0.4009 -0.1238 -0.2415
 6455W        W37671   4.138  26.816   8.995  0.0011  0.1493  0.3809
 6456W        W37672   5.954   5.083   2.269 -0.0065 -0.0576 -0.1369
 6457W        W37673  17.225  20.718   2.904  0.1857  0.0054  0.1655
 6458W        W37674  16.696   6.933   9.013  0.1439  0.1108 -0.1587
 6459W        W37675  26.249   7.304   2.314  0.0513 -0.2812 -0.0033
 6460W        W37676  27.297   1.507   1.627 -0.0642  0.0651  0.0297
 6461W        W37677  23.822  20.719   9.129  0.3441 -0.0986  0.0410
 6462W        W37678   7.325  11.489   8.902  0.1052 -0.5057 -0.1712
 6463W        W37679  14.172  27.105   9.909  0.0142  0.0462  0.1011
 6464W        W37680  16.380  10.407   1.098 -0.1280  0.2290  0.1774
 6465W        W37681   0.813  22.468   9.172  0.0643  0.3441 -0.1160
 6466W        W37682   0.772   2.288   9.076  0.2552  0.3256  0.0449
 6467W        W37683  17.322   0.142   8.918  0.0035 -0.1819  0.0652
 6468W        W37684  10.521   8.459   0.158 -0.0736 -0.0195 -0.1782
 6469W        W37685   2.664   4.300   8.855  0.1141 -0.1730 -0.0035
 6470W        W37686   4.659  12.904   7.719 -0.1863  0.0278  0.0249
 6471W        W37687  17.930   6.754   2.223 -0.0501  0.0967 -0.0225
 6472W        W37688  22.399   1.801   2.469 -0.1363 -0.3267  0.1697
 6473W        W37689  23.976   5.700   9.001 -0.0629 -0.0019 -0.3877
 6474W        W37690  12.864   5.387  10.243 -0.0503 -0.0154  0.2703
 6475W        W37691  21.205   3.879   8.622 -0.0385 -0.2020  0.0643
 6476W        W37692   9.186  18.545   9.134  0.2980  0.0120  0.2881
 6477W        W37693  15.214  27.196   9.878 -0.2292 -0.0631 -0.0035
 6478W        W37694   6.279  22.287  10.118 -0.1140 -0.0165  0.4652
 6479W        W37695   1.435  13.446   1.087 -0.0733 -0.0167  0.0602
 6480W        W37696  25.669  25.657   9.771  0.1049 -0.3443  0.0379
 6481W        W37697   0.658  20.570   0.529 -0.1469 -0.0918  0.1864
 6482W        W37698  14.076  20.988   9.061  0.1765  0.0490 -0.1831
 6483W        W37699   4.063  23.788  10.377 -0.2995  0.4570 -0.3734
 6484W        W37700   6.533  27.561   1.434  0.1327  0.0599  0.4164
 6485W        W37701  16.258  11.896   0.768 -0.0166  0.1031 -0.0175
 6486W        W37702  18.428   6.498   8.370  0.1334 -0.0451  0.2579
 6487W        W37703  22.455   2.147   2.880 -0.1732  0.3278 -0.0357
 6488W        W37704   1.468   6.516   0.648  0.0915 -0.2911  0.1955
 6489W        W37705  12.248   4.679   3.239 -0.0742  0.0124  0.1921
 6490W        W37706  18.666   7.985   2.271  0.0653 -0.0723 -0.1926
 6491W        W37707  23.993  25.381   0.906  0.2986 -0.0518 -0.1051
 6492W        W37708  16.025  17.231   1.227 -0.1621 -0.1784 -0.0281
 6493W        W37709  20.537   0.328   2.181 -0.2950 -0.2300  0.1322
 6494W        W37710  27.365  14.691   1.564  0.1600  0.0813 -0.0950
 6495W        W37711   4.481   8.528  10.111 -0.0995 -0.1584  0.0020
 6496W        W37712  24.565  11.297   9.580  0.0391  0.2086  0.0015
 6497W        W37713  20.627  18.979   9.837  0.1243  0.1373  0.0071
 6498W        W37714  22.462  15.325   2.296  0.1337  0.1871 -0.0993
 6499W        W37715  15.718  21.900   3.856 -0.2288  0.0787  0.1779
 6500W        W37716   4.001   3.302  10.317  0.3150  0.1151  0.0563
 6501W        W37717   1.286   2.098   0.646 -0.1834  0.2714 -0.0616
 6502W        W37718   1.308  21.341   2.692 -0.1396 -0.1039 -0.0781
 6503W        W37719  24.032   6.552  10.158 -0.1445  0.1964 -0.0010
 6504W        W37720  15.619  11.863   1.318  0.3111 -0.0074 -0.0710
 6505W        W37721  12.614   1.396   1.783  0.1667  0.0297 -0.3791
 6506W        W37722   7.163   3.653   0.989 -0.3263 -0.1865  0.2001
 6507W        W37723  25.252  17.251   1.434  0.0160  0.2060 -0.1239
 6508W        W37724   0.556   0.687   3.431 -0.0257  0.1243  0.1900
 6509W        W37725  20.480  14.283   2.626 -0.0263 -0.1391  0.0768
 6510W        W37726  21.462  14.037   1.639 -0.0813 -0.1921  0.0650
 6511W        W37727  23.342  14.104   0.191  0.2196 -0.1961  0.1131
 6512W        W37728  16.013  25.112   9.683  0.0904 -0.1122  0.1662
 6513W        W37729  19.990   4.321   1.057  0.2285  0.0723  0.1695
 6514W        W37730  19.105   0.843   7.877  0.2238 -0.1352  0.0068
 6515W        W37731  11.168  20.978   2.231  0.0929 -0.0062 -0.1967
 6516W        W37732  25.060   2.634   9.084 -0.3800 -0.0509 -0.1830
 6517W        W37733   9.159  26.205   3.016 -0.0675 -0.1934  0.1455
 6518W        W37734  19.236  12.849   8.969 -0.3311  0.0133 -0.1147
 6519W        W37735   9.367   4.882   7.933 -0.4282  0.1724  0.1425
 6520W        W37736  27.288  25.419   0.865  0.0573 -0.0346  0.0800
 6521W        W37737   5.531  21.854   9.697  0.1087  0.1140  0.1097
 6522W        W37738  23.426  20.793   9.529  0.0160  0.0404 -0.2077
 6523W        W37739  17.538  25.011   9.711  0.0415 -0.1562 -0.3182
 6524W        W37740   3.307  15.966   1.855  0.2377  0.2646  0.1616
 6525W        W37741  27.224  15.956   0.652 -0.1200  0.1383  0.0281
 6526W        W37742  22.330   0.426   9.822 -0.1789 -0.1015 -0.1159
 6527W        W37743   8.155  16.592   2.649  0.1147 -0.2620 -0.1216
 6528W        W37744  20.364   8.536   1.591 -0.1058 -0.6444 -0.2054
 6529W        W37745  14.089   2.518   1.501  0.3510  0.0048  0.0030
 6530W        W37746  27.496  27.557   3.583 -0.1188  0.1371  0.0066
 6531W        W37747   0.414  15.463   0.426  0.0108  0.0082  0.1573
 6532W        W37748  20.950  26.704   2.036  0.1836 -0.0724  0.2877
 6533W        W37749   8.496   2.426  10.502  0.1712  0.1650 -0.1886
 6534W        W37750  10.926  17.129   9.838 -0.1326  0.2710  0.0965
 6535W        W37751   0.300  16.592   9.025  0.3821  0.2139 -0.1288
 6536W        W37752  12.542   0.085   8.888 -0.1326  0.3556  0.2406
 6537W        W37753   2.382  25.735   8.959 -0.6540 -0.1884 -0.1148
 6538W        W37754  25.282  21.435   7.488  0.2623 -0.1331 -0.2078
 6539W        W37755  19.266   9.509   9.484 -0.0105  0.0764  0.1414
 6540W        W37756   5.719  22.443  10.248  0.2077  0.0418 -0.1086
 6541W        W37757  23.118  15.268   9.170 -0.3665  0.2096  0.0605
 6542W        W37758   6.144  20.815   2.517 -0.1415  0.1153 -0.3002
 6543W        W37759  20.019   3.781   2.102  0.1216  0.2609 -0.1416
 6544W        W37760   3.584  19.053   2.155 -0.0477 -0.0989 -0.0081
 6545W        W37761  16.856   8.477   3.212 -0.2458 -0.3042 -0.0966
 6546W        W37762  23.386   2.186   8.606 -0.1195 -0.1541  0.3604
 6547W        W37763   9.499  13.814   0.855  0.1157  0.2266 -0.0529
 6548W        W37764  14.031  18.384   8.622  0.1172  0.2441  0.3877
 6549W        W37765   4.810  17.447   9.593 -0.3452  0.1497 -0.1382
 6550W        W37766  11.606   3.578  10.469 -0.0522 -0.1971  0.5977
 6551W        W37767  21.083  25.487   2.309 -0.0912  0.0129  0.0415
 6552W        W37768   5.601  27.335   2.906 -0.2493  0.1452  0.1981
 6553W        W37769   3.234   0.622   0.848  0.0203 -0.1638  0.1158
 6554W        W37770   0.486  15.454   3.861  0.3023 -0.0297 -0.3355
 6555W        W37771  14.967  17.956   1.623  0.0168  0.1177  0.0568
 6556W        W37772  10.106  11.187   3.258  0.3750 -0.1362 -0.0930
 6557W        W37773   5.773  18.536   8.896 -0.3914 -0.0397  0.0525
 6558W        W37774   8.582  11.202   2.021 -0.0042  0.1483  0.0882
 6559W        W37775  14.724   8.108   7.280  0.0932  0.0935 -0.1234
 6560W        W37776   1.281   9.477   8.677 -0.1112 -0.2753  0.1580
 6561W        W37777  26.264   9.189  10.005  0.0918 -0.1492  0.1769
 6562W        W37778  18.468  17.916   8.495  0.1954  0.1840  0.1313
 6563W        W37779   2.870   2.651   1.933 -0.0588  0.0910 -0.2691
 6564W        W37780  23.320   2.512   3.916 -0.2194 -0.1212  0.0144
 6565W        W37781   6.150  26.654   4.155  0.1663  0.1000 -0.0273
 6566W        W37782  13.639  16.927   2.764  0.1062 -0.2109  0.3452
 6567W        W37783  20.074  21.167   8.641 -0.3091  0.1042 -0.1465
 6568W        W37784   9.067  26.483   7.405  0.2153  0.1790 -0.0149
 6569W        W37785   4.499  11.089   1.491 -0.0889 -0.1790  0.1755
 6570W        W37786  11.663  17.603   1.139 -0.2249  0.0086  0.1224
 6571W        W37787  17.932   3.640   8.864 -0.1737 -0.2440  0.1197
 6572W        W37788  12.587  26.844   8.737  0.1979  0.2519  0.0363
 6573W        W37789  22.678  26.596   1.745  0.3344  0.0609  0.0460
 6574W        W37790  21.543  10.485   8.802 -0.1280  0.2408  0.1855
 6575W        W37791   7.731  15.201   2.921  0.1036  0.1241  0.0226
 6576W        W37792  26.153  24.861   9.162 -0.1458 -0.1120  0.2998
 6577W        W37793   4.268  24.758   9.163 -0.3119  0.0274 -0.0003
 6578W        W37794  18.093  27.312   0.869  0.1251 -0.3213 -0.0514
 6579W        W37795  23.340   7.939   8.478 -0.0687  0.1885 -0.0824
 6580W        W37796  27.263  23.790   8.985  0.4001 -0.1749 -0.1549
 6581W        W37797   1.042  17.835   9.683  0.1787 -0.1222 -0.2046
 6582W        W37798  14.216  11.944   7.981 -0.0453  0.0226  0.1378
 6583W        W37799   5.401  10.961   0.803  0.1638 -0.0144 -0.0985
 6584W        W37800   4.961  24.850   2.131  0.0883 -0.0203 -0.2027
 6585W        W37801  22.781  15.206   1.935 -0.0765 -0.1879 -0.2887
 6586W        W37802  12.534   0.743   0.817 -0.2123  0.1530 -0.2361
 6587W        W37803  13.034  16.043   8.288  0.0201  0.0805  0.0808
 6588W        W37804  18.515  24.976   8.651  0.2448  0.0471  0.0750
 6589W        W37805  18.756  19.454   3.023  0.0142  0.1103 -0.0433
 6590W        W37806   1.143   2.942   7.445  0.0160  0.1751  0.1174
 6591W        W37807  10.252   6.629  10.361  0.0178  0.1898  0.0678
 6592W        W37808   8.817  18.056   1.767  0.1002 -0.1120  0.0699
 6593W        W37809  10.749   5.611   3.572 -0.5137 -0.0521  0.2646
 6594W        W37810  21.975   9.081   8.445 -0.1060  0.0569 -0.0876
 6595W        W37811   8.253  13.665   0.938 -0.1992  0.0617  0.1068
 6596W        W37812   6.438  14.023   9.290 -0.0437  0.0994 -0.1158
 6597W        W37813   5.646  24.778   2.100 -0.1971 -0.0595 -0.0362
 6598W        W37814   7.611   3.452   0.827  0.0185  0.0443 -0.0751
 6599W        W37815  19.022  20.667   9.852  0.3791 -0.1638 -0.3553
 6600W        W37816  11.329  11.716   9.418  0.1158 -0.0172  0.1079
 6601W        W37817   1.635  15.925   1.185  0.1684 -0.2264  0.0151
 6602W        W37818   5.007   2.673   9.184 -0.0671  0.1306 -0.3064
 6603W        W37819  16.469  15.863   8.651  0.0507  0.3057  0.2250
 6604W        W37820   7.716   6.219   1.670  0.2227 -0.2107 -0.2544
 6605W        W37821   7.088   5.198   1.266  0.0019  0.0372 -0.0081
 6606W        W37822   0.936  25.502   9.073  0.4444 -0.2276 -0.3650
 6607W        W37823  25.163   9.529   9.616  0.0926  0.1651  0.1657
 6608W        W37824   4.960  10.473   9.798  0.0552  0.2539 -0.1162
 6609W        W37825  18.773  11.150  10.415 -0.2094  0.2313  0.1105
 6610W        W37826   7.846  11.546   2.277 -0.0766 -0.0296 -0.1269
 6611W        W37827   6.296  26.965   9.008 -0.1750 -0.0942  0.3107
 6612W        W37828   7.390  19.888  10.534 -0.1662  0.0524  0.1113
 6613W        W37829   5.187   2.173   9.048 -0.1975  0.1058 -0.0554
 6614W        W37830   0.728  20.175   2.551 -0.0781  0.1998 -0.2156
 6615W        W37831   2.998  27.578   9.301  0.1063 -0.1839 -0.1072
 6616W        W37832   4.046  24.990   3.287  0.0762  0.1626 -0.0733
 6617W        W37833   2.620  18.558   1.715 -0.1896  0.1566 -0.0983
 6618W        W37834  25.112  15.166   9.333 -0.0424 -0.2075 -0.1582
 6619W        W37835  18.694   6.940   8.161 -0.4533 -0.1605  0.2328
 6620W        W37836  19.096   7.328   8.160  0.2953  0.1689 -0.0723
 6621W        W37837  26.469  11.383   2.140  0.2058  0.0405  0.2682
 6622W        W37838   1.125  20.219   3.989 -0.0540 -0.0316  0.0095
 6623W        W37839   9.814   8.591   2.939  0.1364  0.0872  0.0592
 6624W        W37840  22.865   1.753   2.312 -0.0151  0.0721 -0.0132
 6625W        W37841  26.197  18.646   7.766  0.2104  0.0968  0.1279
 6626W        W37842   1.771  13.356   7.690 -0.1863 -0.1531  0.0951
 6627W        W37843  22.945  26.136   9.469 -0.1158  0.2949 -0.3685
 6628W        W37844  18.523  13.090   9.325 -0.1050  0.0359  0.2424
 6629W        W37845  25.616  15.782   7.777 -0.0146  0.0251 -0.1680
 6630W        W37846   3.262  19.607   3.356  0.0974  0.0305  0.0340
 6631W        W37847  26.307  22.281   8.578 -0.1609  0.1083  0.2900
 6632W        W37848   0.422  21.049   3.739 -0.2248  0.1465 -0.2606
 6633W        W37849  24.832   6.779   2.466 -0.1664  0.1096  0.0424
 6634W        W37850   4.230  15.045   9.514 -0.1145  0.0715 -0.2432
 6635W        W37851   5.680   5.810   1.802  0.0208 -0.1326  0.1119
 6636W        W37852  25.112  25.219   1.849  0.2473  0.0442 -0.0757
 6637W        W37853  17.572  24.134   7.860 -0.0404 -0.1730 -0.2791
 6638W        W37854   1.703  13.952   8.917  0.0453  0.3258 -0.0991
 6639W        W37855   1.921  15.631   2.852 -0.2456  0.0812 -0.5239
 6640W        W37856  14.778  25.747   2.881  0.1361 -0.1254  0.0484
 6641W        W37857  18.201  15.491   3.070 -0.0377 -0.2418  0.0521
 6642W        W37858   9.691   1.087   9.712  0.1063  0.0011  0.0938
 6643W        W37859  11.837   8.728   2.250  0.1192 -0.1358  0.1726
 6644W        W37860  14.812   7.620   1.462  0.3343  0.0930 -0.1871
 6645W        W37861  24.880   7.242   3.274 -0.7377  0.2831  0.2255
 6646W        W37862  11.449  18.931   1.371 -0.1207  0.0651 -0.0344
 6647W        W37863  27.541   3.761   1.920 -0.0425  0.1619  0.0874
 6648W        W37864   0.672  21.877   1.388  0.0192  0.0364 -0.1171
 6649W        W37865  19.603   8.621   9.323 -0.2373  0.1099  0.2827
 6650W        W37866  10.001  19.773   9.989  0.0648  0.1466  0.3312
 6651W        W37867  20.478  22.790   8.512  0.1409 -0.1193 -0.1404
 6652W        W37868  25.901  25.560   1.483 -0.3799  0.1689  0.1169
 6653W        W37869   6.388   8.149   2.638  0.0500 -0.0474 -0.1121
 6654W        W37870   7.476  23.801   9.678 -0.0268 -0.1637 -0.0095
 6655W        W37871   4.294  19.666   2.975 -0.2001  0.3648  0.0618
 6656W        W37872   8.995   0.023   8.880  0.0875  0.1353  0.0679
 6657W        W37873   1.761   5.221   3.204 -0.0201  0.4801  0.0056
 6658W        W37874  26.678   4.074   9.423  0.2732 -0.0626  0.0276
 6659W        W37875  22.594  22.104   0.080 -0.3047  0.1955  0.0177
 6660W        W37876  26.072   7.839   2.035 -0.2048 -0.1061 -0.0960
 6661W        W37877  13.335   2.556   9.962 -0.1930  0.3415  0.0433
 6662W        W37878  16.838   9.166   8.405  0.3510 -0.1968  0.1293
 6663W        W37879   8.404  26.022   2.340  0.1279 -0.0474  0.3036
 6664W        W37880  12.315  22.336   0.699 -0.1574 -0.1260  0.0743
 6665W        W37881   9.682   7.771   9.698  0.1140 -0.1383  0.3571
 6666W        W37882   4.590  12.325   0.782 -0.1087  0.1989 -0.0144
 6667W        W37883  26.224  19.757   8.157 -0.3024 -0.0306  0.0675
 6668W        W37884   5.375  23.562   2.229 -0.0606 -0.1249 -0.2812
 6669W        W37885   7.106  22.380  10.192  0.3546  0.0967 -0.1940
 6670W        W37886  21.215   6.660   0.987  0.1547  0.2074  0.2100
 6671W        W37887   9.984  24.572   0.463 -0.1157 -0.3174  0.2787
 6672W        W37888  21.466  10.727   9.797  0.1905 -0.1348 -0.1757
 6673W        W37889   2.788  14.081   3.495 -0.4016 -0.1852 -0.1841
 6674W        W37890   0.517   5.854   7.471  0.2808 -0.0839 -0.2115
 6675W        W37891  19.798  12.269   9.221 -0.0140 -0.0482 -0.1089
 6676W        W37892  22.333  12.068  10.404 -0.0037  0.1103  0.1306
 6677W        W37893   5.311  19.414   3.511  0.2388 -0.1692  0.0035
 6678W        W37894   8.500   5.091   7.579  0.1505  0.0339  0.1063
 6679W        W37895   7.297  18.902   2.112 -0.1351 -0.2043  0.2137
 6680W        W37896  11.825  23.397   8.726 -0.2903  0.2989 -0.0703
 6681W        W37897  20.480  18.886   3.071 -0.4232 -0.0340 -0.0677
 6682W        W37898   1.497  19.837  10.216 -0.2857 -0.2244 -0.1659
 6683W        W37899  16.027   4.459   0.339 -0.0303 -0.0172  0.4096
 6684W        W37900  25.417   4.381   1.155 -0.1837 -0.1141  0.1211
 6685W        W37901   7.708  20.729   8.627  0.1773  0.2592  0.0790
 6686W        W37902   0.221   9.231   1.540  0.3803  0.0147 -0.1616
 6687W        W37903  26.229   8.646   9.287  0.5319  0.2930  0.2408
 6688W        W37904  17.903  19.370   7.735  0.2381  0.2810  0.3103
 6689W        W37905  18.207   2.856   9.434 -0.0967  0.1250 -0.3858
 6690W        W37906  21.252   5.292   8.868  0.1331  0.1363 -0.2589
 6691W        W37907  27.248  26.692   1.785  0.2173 -0.0207 -0.0412
 6692W        W37908  19.217  17.601   7.915 -0.1129  0.3340 -0.1769
 6693W        W37909  24.728  24.602   2.634  0.1071  0.2984 -0.0642
 6694W        W37910  13.739   9.890   2.531  0.0207 -0.0042  0.1033
 6695W        W37911   5.763  21.536   0.400 -0.1297 -0.4594 -0.1064
 6696W        W37912  17.505  25.479   2.485 -0.1745  0.1061  0.1252
 6697W        W37913  20.624   7.158   8.283 -0.1129 -0.2197 -0.0393
 6698W        W37914  10.413  10.401   1.600 -0.0534 -0.1985  0.0823
 6699W        W37915   2.119  12.862   0.889 -0.2836  0.1529 -0.3730
 6700W        W37916   1.874   2.053   9.116 -0.3898 -0.0252  0.0082
 6701W        W37917   7.865   0.598   0.735 -0.1349  0.0156  0.4931
 6702W        W37918  22.144   3.623   2.765  0.0563  0.0548  0.0284
 6703W        W37919  13.819  26.044   0.121 -0.1309 -0.0102  0.1227
 6704W        W37920  10.084   5.049   9.345  0.3644 -0.0501 -0.0385
 6705W        W37921  12.492   9.073   1.571 -0.1374  0.2716 -0.1305
 6706W        W37922   5.256  11.779   1.426  0.1833 -0.1580  0.0103
 6707W        W37923  22.046  19.431   2.368  0.1781 -0.0738  0.1557
 6708W        W37924   6.866   8.578   1.494 -0.2360  0.0241  0.2501
 6709W        W37925  17.735  11.792   2.722 -0.0522 -0.1793 -0.0193
 6710W        W37926  27.221  26.256   1.577  0.2647  0.0817  0.2236
 6711W        W37927  23.838   5.106   2.009 -0.2516 -0.0439 -0.2670
 6712W        W37928  18.576  20.591   9.301 -0.1688  0.0530  0.1366
 6713W        W37929   5.714  14.942   9.068 -0.0385 -0.1822  0.0236
 6714W        W37930  22.104   7.967   0.773  0.2304 -0.2048 -0.3150
 6715W        W37931   9.335  16.565   8.532 -0.0745  0.0164 -0.0953
 6716W        W37932   9.499  10.555   0.588 -0.1819 -0.2139  0.0385
 6717W        W37933  24.310   6.890   2.118  0.0452 -0.1215  0.0996
 6718W        W37934  27.499  17.531   8.961  0.0541  0.3622  0.2184
 6719W        W37935   5.843  17.382   2.393  0.2046  0.4403  0.1028
 6720W        W37936  24.046  24.403   8.304 -0.0671 -0.0219 -0.2385
 6721W        W37937  24.574  25.215   8.120 -0.2600 -0.0023  0.0862
 6722W        W37938   6.265   6.279  10.471  0.3617  0.1687 -0.2778
 6723W        W37939   8.722   6.746   6.924  0.0582 -0.0718 -0.0587
 6724W        W37940  13.800  25.346   9.031  0.2303  0.1343  0.3452
 6725W        W37941   9.773   0.172   9.378 -0.1842  0.3385  0.1987
 6726W        W37942  10.351  17.523   9.734  0.0000  0.0036 -0.1544
 6727W        W37943   1.779  19.976   2.631  0.2315  0.0731 -0.2013
 6728W        W37944   4.712   1.015  10.155  0.1996 -0.2229  0.0131
 6729W        W37945   2.213  26.522  10.089 -0.5361  0.1154 -0.1224
 6730W        W37946  17.192  26.546   0.641  0.1771  0.1043  0.0956
 6731W        W37947  15.678  12.679   9.340 -0.0992  0.2141  0.1443
 6732W        W37948   0.218   5.914   8.642  0.2370  0.0273  0.2453
 6733W        W37949  15.368   5.941   0.828 -0.2562 -0.3211  0.1479
 6734W        W37950   7.318   7.846   1.044  0.2113  0.2947  0.0220
 6735W        W37951  14.450  26.277   9.663 -0.1684  0.0209 -0.5333
 6736W        W37952  10.113  13.301  10.200  0.0629  0.0618  0.2401
 6737W        W37953   5.372   7.434  10.344 -0.1522 -0.1974 -0.0792
 6738W        W37954  21.150   6.914   8.414 -0.1555 -0.1053 -0.0544
 6739W        W37955  22.187   3.476   1.182 -0.0902 -0.1175 -0.0802
 6740W        W37956  12.358   7.110  10.286 -0.1488 -0.0759 -0.0330
 6741W        W37957   0.812   8.013   1.773  0.1319 -0.2525 -0.1520
 6742W        W37958  13.368  20.045   0.818  0.0588  0.0299 -0.0601
 6743W        W37959   1.429   6.512   1.118  0.1867 -0.0172 -0.2848
 6744W        W37960   9.878  15.108   8.152 -0.1463  0.1602  0.0660
 6745W        W37961  25.215  12.284   9.350 -0.1573 -0.4431 -0.2745
 6746W        W37962   0.492  11.596   9.620  0.1603  0.0264  0.1554
 6747W        W37963   7.051   8.574   9.625 -0.3803 -0.2059  0.2701
 6748W        W37964  25.373   8.425   0.109 -0.0602 -0.1089  0.0404
 6749W        W37965  12.124  10.251   3.910  0.3409 -0.2834  0.2534
 6750W        W37966  19.836   4.856   2.410 -0.1002  0.2871  0.3004
 6751W        W37967  13.644  26.819   7.761  0.1911  0.0428 -0.0918
 6752W        W37968   3.246  21.689   7.438 -0.0242  0.3035  0.0821
 6753W        W37969  10.892   3.879   8.822  0.0160 -0.2828 -0.1689
 6754W        W37970   7.693  20.670   3.390 -0.1104 -0.1347  0.1247
 6755W        W37971  24.695   8.367   2.996 -0.0960  0.0878  0.2581
 6756W        W37972  14.517   0.311   9.292  0.0691  0.2977 -0.0302
 6757W        W37973  21.931   6.074   9.531  0.0805 -0.2566  0.3711
 6758W        W37974  16.205  14.347   0.707 -0.1577  0.2247 -0.2658
 6759W        W37975  12.786  26.434   0.243  0.0942 -0.0167 -0.3325
 6760W        W37976   5.280   3.035   7.965 -0.0553  0.1575 -0.1685
 6761W        W37977  22.511  20.921   9.124  0.2079  0.2919 -0.1752
 6762W        W37978  11.159  23.957   2.581 -0.0832 -0.0740  0.1879
 6763W        W37979  17.505  21.726  10.004  0.1776 -0.0107  0.0628
 6764W        W37980  13.157  15.257   2.100 -0.3684 -0.0176 -0.0163
 6765W        W37981   8.499  14.661   9.493  0.1792  0.1642 -0.0525
 6766W        W37982  21.096  21.158   2.853 -0.1848  0.0553  0.0673
 6767W        W37983  25.028   4.182   0.129  0.1663 -0.0161  0.0299
 6768W        W37984  23.688   0.320   2.888  0.1187 -0.0411  0.2573
 6769W        W37985  22.608   1.354   9.455 -0.2140  0.0841 -0.1292
 6770W        W37986   4.865  17.108   2.140 -0.2250 -0.2157 -0.1287
 6771W        W37987  16.935   9.983   0.315  0.0116  0.0298 -0.3134
 6772W        W37988  16.767  16.093   9.798  0.2983  0.0494 -0.1632
 6773W        W37989   3.251  11.316   2.422  0.1429 -0.1548  0.4198
 6774W        W37990   5.088   9.770   1.106 -0.1464  0.2231  0.1473
 6775W        W37991   4.812  20.814   0.409  0.2507  0.1035  0.2720
 6776W        W37992   5.937   4.398   7.806  0.0484  0.2801 -0.0725
 6777W        W37993  16.184  12.221   2.062  0.0107  0.0304 -0.1120
 6778W        W37994   7.833  24.536   3.524  0.1491  0.1368  0.0808
 6779W        W37995  18.456  19.885   0.111  0.3265  0.1796 -0.1789
 6780W        W37996   5.155  23.191   2.884 -0.1504 -0.0023  0.0547
 6781W        W37997  18.131  11.248   7.403  0.3759  0.5770  0.0931
 6782W        W37998   0.961  21.882   8.592 -0.3986 -0.0170  0.0717
 6783W        W37999   7.824  12.594   9.474 -0.0476  0.3406 -0.0432
 6784W        W38000  27.023   0.943   0.030  0.1631  0.3010 -0.0649
 6785W        W38001   5.677  16.423   8.615  0.1185  0.1118 -0.0271
 6786W        W38002   5.241   1.935  10.431  0.1025  0.1958  0.2346
 6787W        W38003  18.967  13.852   0.112  0.0937  0.0279 -0.1554
 6788W        W38004  13.370  26.797   0.241  0.1542 -0.0627  0.0722
 6789W        W38005   5.822   1.452   1.223  0.1848 -0.0802  0.0231
 6790W        W38006   3.415   3.353   7.810  0.0674  0.0573 -0.1990
 6791W        W38007   0.821  19.148   8.172 -0.0574  0.0457 -0.0507
 6792W        W38008  13.279  16.829   9.488 -0.0242 -0.1593  0.0979
 6793W        W38009  20.149   0.687   2.426  0.0341  0.0979 -0.1326
 6794W        W38010   1.469   1.604   3.618 -0.1853  0.0672 -0.0155
 6795W        W38011   2.847   4.808   8.907  0.2679 -0.1876  0.4925
 6796W        W38012  20.451   4.817   8.698  0.3521 -0.1240 -0.0878
 6797W        W38013  21.849  26.658  10.189  0.2550 -0.0951  0.1495
 6798W        W38014   7.014  15.337   2.320 -0.0522  0.0437 -0.0491
 6799W        W38015  11.927  11.511   7.838  0.1265  0.0470  0.3729
 6800W        W38016  21.211  20.816   1.504  0.0741  0.0628 -0.1548
 6801W        W38017  13.367  20.464   1.492  0.1150  0.1764  0.1840
 6802W        W38018  11.430  11.902   0.655 -0.1069  0.2238  0.1710
 6803W        W38019  26.248  25.871   8.093  0.2700 -0.3265  0.3229
 6804W        W38020  22.790   5.727   9.376  0.1669 -0.0454  0.0060
 6805W        W38021  16.144   9.943   0.920 -0.2074 -0.2440 -0.0323
 6806W        W38022  26.639  10.630   3.495 -0.2517 -0.0954  0.1679
 6807W        W38023  22.153  11.366   1.206  0.0690  0.1154  0.0656
 6808W        W38024  21.785   4.420   0.441  0.0096  0.1749  0.1781
 6809W        W38025   3.918  25.628   9.622 -0.1427 -0.2741 -0.2464
 6810W        W38026   3.551   8.736   9.851  0.0077 -0.2709 -0.2217
 6811W        W38027   2.801  24.027   1.574 -0.0483  0.5105 -0.1003
 6812W        W38028  17.746  17.370   2.059  0.2823 -0.0676  0.4777
 6813W        W38029  17.446   3.796   1.742  0.2703 -0.3284  0.3084
 6814W        W38030  27.501  11.252   0.583  0.2027 -0.0269 -0.0329
 6815W        W38031  15.043  22.284   1.669  0.1028 -0.0685 -0.2851
 6816W        W38032  18.860  12.536   8.108  0.2633  0.0720 -0.0456
 6817W        W38033   1.803  24.996   9.339 -0.0979 -0.0358  0.2270
 6818W        W38034   7.350  13.787   9.075 -0.3538 -0.0973 -0.1178
 6819W        W38035  10.179   3.238   0.672 -0.0246 -0.0456  0.1010
 6820W        W38036  21.741   0.480   9.942 -0.0785 -0.0014  0.1768
 6821W        W38037   5.443   1.575   9.029  0.3729 -0.2257 -0.3568
 6822W        W38038   4.889   8.686   1.758 -0.1973  0.1417 -0.1495
 6823W        W38039   1.482   9.286   1.499 -0.1614  0.4390  0.1055
 6824W        W38040   0.033  24.071   1.433 -0.1131  0.0352 -0.3415
 6825W        W38041   6.162  25.470   9.417 -0.1042  0.2474  0.2759
 6826W        W38042  13.542  17.185   7.876 -0.0287  0.2297  0.0181
 6827W        W38043  15.619  26.797   1.216  0.1632  0.0600  0.0364
 6828W        W38044  10.238  25.701   7.863 -0.0207 -0.0896  0.0670
 6829W        W38045  21.404  18.055   7.501 -0.0449  0.0542 -0.2057
 6830W        W38046  24.430   9.142   2.030  0.1359 -0.1196 -0.1151
 6831W        W38047   8.071   3.327   2.696  0.0496 -0.0923 -0.0258
 6832W        W38048   7.886   7.787  10.171 -0.3574 -0.1154  0.0557
 6833W        W38049   7.575   2.841   0.898 -0.0686  0.2071  0.1024
 6834W        W38050  23.273  13.400   7.787 -0.0073 -0.0698 -0.1272
 6835W        W38051  21.790   8.988   7.332  0.0125  0.1419 -0.1500
 6836W        W38052   0.257   3.858   1.122 -0.0064 -0.1187  0.0169
 6837W        W38053  17.062  12.641  10.533  0.1229  0.0897  0.0014
 6838W        W38054  11.508  25.649   2.718 -0.0550  0.3128 -0.0471
 6839W        W38055  26.029   4.193   3.377 -0.0823 -0.2592  0.0734
 6840W        W38056   2.304   4.501   1.395 -0.0873 -0.2998 -0.3029
 6841W        W38057  26.104  10.051  10.385 -0.0149 -0.1546 -0.4219
 6842W        W38058  15.785  10.910  10.141  0.0565 -0.0877 -0.0749
 6843W        W38059  24.700  18.685   0.016 -0.0366 -0.3860  0.0960
 6844W        W38060  21.058  23.290   9.180  0.0702  0.0071  0.2051
 6845W        W38061   2.448  27.058   1.414  0.1100  0.4669  0.0534
 6846W        W38062  26.932  15.100   2.645  0.1290  0.3295  0.1618
 6847W        W38063  26.244   3.184   8.599  0.4060  0.2234  0.0074
 6848W        W38064  19.616  13.737   7.787 -0.1180 -0.2345  0.0207
 6849W        W38065  13.554   1.629   3.478 -0.0124  0.2436 -0.0857
 6850W        W38066  25.024   4.844   9.257  0.0453 -0.1146  0.1945
 6851W        W38067  24.450   2.135   2.949 -0.1548 -0.1201  0.1649
 6852W        W38068   8.770   2.544   1.665  0.1976  0.0364  0.1838
 6853W        W38069  10.986   8.786   8.038 -0.0567 -0.0532  0.1032
 6854W        W38070  23.593   5.748   1.871  0.0692  0.0586 -0.0980
 6855W        W38071  24.025   1.603   9.331 -0.0279  0.1033 -0.1858
 6856W        W38072  17.020  23.155   9.904 -0.2588 -0.2949  0.0870
 6857W        W38073  17.378  26.222  10.017  0.0430 -0.3000 -0.2296
 6858W        W38074  23.096  18.445   3.046  0.0879 -0.2522  0.0290
 6859W        W38075  23.664   4.117   1.992  0.1691  0.2373  0.3474
 6860W        W38076   4.831  10.287   8.896  0.1126  0.1391 -0.3167
 6861W        W38077   6.879  16.911   2.037 -0.0081  0.2172  0.1439
 6862W        W38078  25.741  26.956   8.798  0.0106  0.0389  0.1100
 6863W        W38079  26.784   5.747   2.027  0.0232  0.2996 -0.2784
 6864W        W38080  17.004  19.109   2.865  0.2358  0.2156  0.2904
 6865W        W38081   6.876  23.383   1.024 -0.0845 -0.0900  0.0891
 6866W        W38082  19.240  13.084   1.239 -0.0790  0.0841  0.2543
 6867W        W38083   0.461   9.882   9.272 -0.1598 -0.3096  0.1115
 6868W        W38084   2.678   0.843   1.615  0.2083 -0.2136  0.2014
 6869W        W38085  10.869  11.172   1.864  0.1853  0.0159 -0.3592
 6870W        W38086  27.533  19.745   3.844 -0.1184 -0.0378 -0.1097
 6871W        W38087  26.658   9.178   2.824  0.1231 -0.0945 -0.0817
 6872W        W38088  13.991   4.097   0.435 -0.0774 -0.0995  0.1494
 6873W        W38089  16.593   7.914   8.078  0.0276 -0.0245 -0.0155
 6874W        W38090  21.139   2.559   7.836  0.2190  0.0400 -0.2875
 6875W        W38091  18.177  21.653   7.830 -0.0786 -0.1112 -0.0767
 6876W        W38092  20.810  17.055   8.149 -0.1453 -0.4847  0.0765
 6877W        W38093   5.660   8.038   9.455 -0.0093 -0.0095  0.1604
 6878W        W38094  13.714  24.430   0.201  0.2166  0.1520 -0.0761
 6879W        W38095  25.465  24.389   9.101 -0.0057  0.1233  0.1179
 6880W        W38096  15.681  24.557   2.668 -0.1078 -0.2123 -0.3737
 6881W        W38097   5.414   3.438  10.406 -0.0121  0.0696  0.0611
 6882W        W38098  16.582  12.136   1.289  0.0056 -0.1017  0.1373
 6883W        W38099   4.835   9.072   0.362  0.2550 -0.1747  0.0999
 6884W        W38100  17.390  10.932   3.107  0.2935  0.1972 -0.0073
 6885W        W38101   9.546  26.209   0.385  0.1815  0.1500 -0.2113
 6886W        W38102  24.287  15.139   2.671 -0.0019 -0.0534 -0.1164
 6887W        W38103   4.547  22.235   2.146 -0.0669  0.1378 -0.0911
 6888W        W38104  12.937  16.360   8.738 -0.2522 -0.3549 -0.1445
 6889W        W38105   0.717   7.017   9.308 -0.0196  0.0171 -0.0725
 6890W        W38106  16.608   1.724   8.081  0.1257 -0.1373  0.0915
 6891W        W38107  23.495   3.484   9.180  0.0227 -0.1381  0.2151
 6892W        W38108  13.160  15.622   1.316 -0.0035  0.0423  0.3253
 6893W        W38109   3.351  23.764   0.545 -0.2497 -0.1658  0.3009
 6894W        W38110  17.998  21.610   1.283  0.2904 -0.2178  0.0541
 6895W        W38111  22.501  22.832   9.313  0.1442  0.0295  0.0093
 6896W        W38112   8.881  19.200   9.800 -0.0063 -0.0638 -0.0305
 6897W        W38113   7.760   8.822  10.497 -0.0915  0.0416 -0.0833
 6898W        W38114   3.226   4.175   3.152 -0.6071 -0.2073  0.1312
 6899W        W38115  27.448  15.018   8.619 -0.2793 -0.0370 -0.0650
 6900W        W38116   3.577   1.985  10.340  0.1320  0.2575 -0.2223
 6901W        W38117  18.687   4.410   2.601  0.0175  0.0019  0.2634
 6902W        W38118  17.675  16.913  10.210  0.1236 -0.2268 -0.1137
 6903W        W38119   0.329  23.359   7.839  0.2305 -0.1161  0.2118
 6904W        W38120  11.619  16.001   8.303 -0.0929  0.2825  0.1101
 6905W        W38121  11.721   9.375   2.128  0.2857 -0.1954 -0.1752
 6906W        W38122   1.278  15.975   3.457  0.3036  0.1228  0.1312
 6907W        W38123  21.969  11.705   2.501  0.2089 -0.3264 -0.1409
 6908W        W38124  22.654   8.401   3.331  0.2960 -0.1673  0.1486
 6909W        W38125  17.778   0.812   1.212 -0.3723  0.1653  0.0358
 6910W        W38126   4.225  14.964   8.871 -0.1138  0.1812  0.0143
 6911W        W38127  24.991   3.785   0.636 -0.2210 -0.1443 -0.2338
 6912W        W38128  17.909   4.041   2.443 -0.2266 -0.1191  0.3941
 6913W        W38129  17.781  22.688   8.770 -0.0860  0.1758  0.0552
 6914W        W38130  22.699   2.847   3.761 -0.0170  0.0147  0.1423
 6915W        W38131   9.872  25.865   7.504  0.0209 -0.0582 -0.0948
 6916W        W38132   6.978   2.401   7.942  0.0326 -0.1430  0.2673
 6917W        W38133  17.590  26.084  10.473 -0.4658 -0.0458  0.0627
 6918W        W38134  21.377  22.273   1.953  0.0158  0.0292 -0.0726
 6919W        W38135   4.068  24.522   3.325 -0.1982  0.2869  0.0114
 6920W        W38136  12.203  15.448   0.401  0.1101 -0.2484 -0.1035
 6921W        W38137  10.286   7.855   0.184  0.0012  0.2342 -0.2486
 6922W        W38138  15.417   3.158   9.802 -0.3782  0.1517 -0.0478
 6923W        W38139  11.152  16.162  10.387  0.2303  0.0109  0.0421
 6924W        W38140  17.464  21.404   2.599  0.2536  0.1161  0.0644
 6925W        W38141  13.987  25.710   3.865 -0.1744  0.0696 -0.0918
 6926W        W38142  13.132  10.375   2.120 -0.0843 -0.2102 -0.0077
 6927W        W38143   6.628  24.278   0.540 -0.1576 -0.1606 -0.3067
 6928W        W38144  19.023   7.129   2.076 -0.0760 -0.1000  0.0856
 6929W        W38145  25.045  15.903   1.984  0.2513 -0.1071  0.0426
 6930W        W38146  21.416  16.258   7.564  0.4415 -0.0727  0.0663
 6931W        W38147  20.213   0.780   0.852  0.1145 -0.2779  0.2996
 6932W        W38148  19.134  13.382   0.291 -0.0670 -0.0155  0.1650
 6933W        W38149   0.920   1.327   7.877 -0.0049 -0.0174 -0.0504
 6934W        W38150  26.587  26.133   3.417  0.4013  0.0440  0.0290
 6935W        W38151  15.499  17.617   8.588  0.1367  0.1103 -0.3722
 6936W        W38152   4.732   9.939   0.737 -0.2716  0.3481 -0.4636
 6937W        W38153  12.651  18.218  10.321 -0.2107  0.0787 -0.0553
 6938W        W38154  21.318  18.027   9.949 -0.0258 -0.0645 -0.1450
 6939W        W38155   2.002  17.403   0.711  0.1103  0.3122  0.0183
 6940W        W38156   5.113  23.193  10.393  0.1332 -0.0127  0.0331
 6941W        W38157  21.757  13.628   9.322 -0.3954  0.2478 -0.0943
 6942W        W38158  10.267   2.478   1.189 -0.1426  0.0086 -0.1160
 6943W        W38159  27.185   9.339   9.702 -0.1944 -0.0840 -0.2823
 6944W        W38160  19.220  13.303   1.771 -0.1665 -0.3819 -0.2253
 6945W        W38161  18.533   3.392   8.288  0.2933  0.1097 -0.2595
 6946W        W38162  23.769  14.913   8.927 -0.2742  0.4710 -0.1318
 6947W        W38163  23.781  24.093   7.502 -0.0128 -0.1868 -0.0599
 6948W        W38164   9.219   2.962   9.429 -0.1230 -0.1288 -0.2059
 6949W        W38165  24.675   2.379   0.823 -0.0994 -0.0108  0.0414
 6950W        W38166  23.851  13.572   1.138  0.1512  0.0282  0.0165
 6951W        W38167   3.998  12.340   1.629 -0.0127  0.0888 -0.3223
 6952W        W38168   1.425  24.395   2.433 -0.0532 -0.0255 -0.2876
 6953W        W38169   8.146  17.122  10.268 -0.0031  0.1029  0.1751
 6954W        W38170   1.746  22.887   4.173  0.0957 -0.0724 -0.0625
 6955W        W38171   2.016  17.478   1.197  0.0983  0.2701  0.0164
 6956W        W38172  18.277   0.849   9.112 -0.2203  0.1558  0.0007
 6957W        W38173  13.765  17.412   8.307  0.0017 -0.6558 -0.1814
 6958W        W38174  13.842   4.481   9.797  0.1161 -0.0139  0.1975
 6959W        W38175  14.263   8.296  10.184 -0.1303  0.0991  0.1812
 6960W        W38176  19.058  12.862   8.431  0.0633  0.0865  0.1203
 6961W        W38177  13.686  10.143   9.295 -0.0991 -0.0113 -0.2627
 6962W        W38178   1.659  18.459   1.421 -0.0794 -0.0153  0.0388
 6963W        W38179   5.815  22.391   8.920 -0.2224 -0.2676  0.0285
 6964W        W38180  16.556  19.265   2.658 -0.0616  0.1129  0.0355
 6965W        W38181  15.827  13.917   2.228 -0.2050 -0.3947  0.2357
 6966W        W38182  15.912  25.411   2.497 -0.2836 -0.0766  0.3446
 6967W        W38183   3.695  12.888  10.192 -0.0816  0.0333 -0.2118
 6968W        W38184   7.503  24.828   9.260 -0.1317 -0.4045 -0.0932
 6969W        W38185  25.872   3.774   2.101  0.0763 -0.0504 -0.1223
 6970W        W38186   4.296  10.375  10.539  0.1451  0.3147  0.0908
 6971W        W38187  26.969   6.107   0.040  0.1558 -0.0347 -0.0148
 6972W        W38188   6.126   3.244   2.638  0.0095  0.4892  0.0106
 6973W        W38189   0.444  14.151   1.759  0.3153 -0.0081  0.3011
 6974W        W38190  26.368   2.373   2.287 -0.3029  0.0932 -0.0978
 6975W        W38191   9.140   9.431  10.452 -0.0629 -0.5280  0.1572
 6976W        W38192  25.150   8.704   1.006  0.0038  0.4274  0.2983
 6977W        W38193  15.454  17.434   2.144 -0.0430  0.0617  0.1702
 6978W        W38194  19.424  15.814   1.846 -0.1434 -0.1626  0.2525
 6979W        W38195   6.367   0.728   2.879  0.2060 -0.0694  0.1413
 6980W        W38196  25.873  22.917   3.400  0.1065 -0.2410 -0.1306
 6981W        W38197  15.940  27.143   0.712  0.2464  0.2301  0.0952
 6982W        W38198   1.943  12.781   2.981  0.1524 -0.0054 -0.0794
 6983W        W38199  15.899  14.061   8.438  0.0300  0.1969  0.5739
 6984W        W38200   9.980   2.107   3.451  0.1898 -0.0117 -0.0659
 6985W        W38201  22.675  10.696   8.728  0.1072 -0.1137 -0.1673
 6986W        W38202  11.994  19.416   2.509  0.0044 -0.0739  0.1299
 6987W        W38203   9.389  12.008   0.310 -0.0071  0.0467 -0.3234
 6988W        W38204  15.802  13.418   1.205 -0.1241  0.1658 -0.0741
 6989W        W38205  25.061   3.631  10.053 -0.1019  0.0373 -0.0762
 6990W        W38206  24.494  25.792   8.294 -0.3684 -0.0026  0.0697
 6991W        W38207  11.103   0.561   2.735  0.1465  0.0513  0.1151
 6992W        W38208  23.184   4.643   8.513 -0.1118 -0.1292  0.2269
 6993W        W38209  20.886   8.763   2.739  0.1458 -0.0291  0.2092
 6994W        W38210   4.612   8.460   9.669 -0.4506  0.0604  0.0168
 6995W        W38211  22.252  13.703   9.179 -0.1027 -0.4950 -0.2795
 6996W        W38212  25.088  27.219   2.282  0.1359 -0.0882 -0.1693
 6997W        W38213   2.088  19.607   3.328 -0.0261 -0.0738  0.3293
 6998W        W38214  22.578  21.999   8.201  0.2115  0.0881  0.1129
 6999W        W38215  10.233  10.267   8.039 -0.1406 -0.0155  0.1749
 7000W        W38216  23.209  13.169   2.010 -0.1721 -0.2330 -0.3471
 7001W        W38217   2.427   6.483   1.546 -0.4407  0.2563  0.0711
 7002W        W38218  14.862  26.054   2.164  0.1929 -0.0551  0.0367
 7003W        W38219   1.960  26.858   1.508 -0.2723 -0.0066 -0.0392
 7004W        W38220   7.568  21.128   8.354 -0.0686 -0.0095  0.4182
 7005W        W38221   2.243   3.556   3.498  0.0370  0.3043  0.2949
 7006W        W38222   4.317   3.530   8.825  0.1562 -0.1218 -0.1411
 7007W        W38223  14.696   4.971   0.231 -0.2309 -0.2083  0.0274
 7008W        W38224  13.209  14.198   0.607  0.0728  0.1944  0.0207
 7009W        W38225   8.546  16.160   9.112  0.0755  0.4201  0.2225
 7010W        W38226   4.953   0.762   8.048  0.2326 -0.0093 -0.0582
 7011W        W38227  24.026  18.466  10.234 -0.0495  0.4004 -0.0602
 7012W        W38228   9.950  22.864   8.333  0.0344  0.0470 -0.0698
 7013W        W38229  10.281   7.624   0.706  0.0744  0.0459 -0.3472
 7014W        W38230   9.654  13.687   3.811  0.3404  0.0410  0.1908
 7015W        W38231   1.902   7.259   0.308  0.2154 -0.0556 -0.1624
 7016W        W38232  27.575  10.812   7.750 -0.0500 -0.2077  0.0084
 7017W        W38233  15.474  12.137   8.572 -0.0781  0.0091 -0.1889
 7018W        W38234   0.537  12.371   2.226 -0.2352 -0.1502 -0.1284
 7019W        W38235  26.150  20.099   1.739 -0.1594 -0.0098  0.3138
 7020W        W38236   0.723   2.658   9.412  0.2123 -0.0574  0.1355
 7021W        W38237   8.069   5.244   0.419 -0.1044  0.1862  0.1031
 7022W        W38238  11.644   1.922  10.237 -0.2611  0.2852 -0.3552
 7023W        W38239  16.012  23.401   9.969  0.0614  0.0722  0.0629
 7024W        W38240  25.957  14.054   8.939  0.0107 -0.0280  0.2204
 7025W        W38241   7.554   6.682   2.698  0.0161  0.1912 -0.0534
 7026W        W38242   2.844  22.136   2.761 -0.0632  0.4278  0.0119
 7027W        W38243  10.286  14.457   8.878  0.0180  0.2318 -0.0558
 7028W        W38244  19.504  14.275   1.681  0.1497 -0.0493  0.1318
 7029W        W38245  10.676  24.333   8.952 -0.1728  0.2404  0.0371
 7030W        W38246  14.425   8.142   1.920  0.0801  0.0364 -0.2870
 7031W        W38247  22.887  11.934   1.721  0.0205 -0.1754  0.4467
 7032W        W38248   0.103   0.414   9.430  0.0006 -0.2228 -0.1355
 7033W        W38249  20.477  19.542   9.038 -0.0695  0.1011  0.0170
 7034W        W38250   6.567   7.825   0.459  0.5431 -0.1527  0.0035
 7035W        W38251  10.358  22.906   0.368 -0.1134  0.1063 -0.4061
 7036W        W38252   1.249  21.786   1.309  0.2401 -0.1004 -0.2190
 7037W        W38253   6.902  18.028   0.433  0.2634  0.1898  0.1387
 7038W        W38254  22.076   3.765   2.331  0.1141 -0.2637 -0.1033
 7039W        W38255  10.004  11.187  10.058  0.0864 -0.0996  0.2177
 7040W        W38256   5.027  19.419   7.830 -0.2230 -0.1938  0.0428
 7041W        W38257  13.561  12.626   1.612 -0.0823  0.0455  0.1791
 7042W        W38258  23.248  10.482   2.176  0.0958 -0.4698  0.2455
 7043W        W38259   4.296  13.452   8.847  0.0408  0.3539 -0.1329
 7044W        W38260   5.073  13.267   7.900 -0.0170  0.0476  0.2827
 7045W        W38261   0.549  12.952   8.097 -0.0717 -0.5280 -0.1492
 7046W        W38262  14.537  22.291   0.730 -0.1280  0.0240 -0.0661
 7047W        W38263  23.751  25.659  10.000 -0.1344 -0.4328  0.3152
 7048W        W38264  15.986  22.601   9.816 -0.1112  0.0583 -0.1517
 7049W        W38265  12.644   4.402   1.094  0.3586  0.0923  0.1414
 7050W        W38266   8.844   1.660   2.412 -0.1514 -0.1886 -0.1498
 7051W        W38267   5.364  21.495   8.701 -0.1202 -0.2893 -0.1328
 7052W        W38268   5.316  17.390   9.315 -0.0631 -0.2365  0.0335
 7053W        W38269   2.898  22.258   8.077  0.2025  0.0175 -0.2705
 7054W        W38270  22.694  26.381   9.973 -0.1690  0.1067 -0.2177
 7055W        W38271  22.669  10.253   9.584 -0.0209  0.1596 -0.0945
 7056W        W38272   3.019  18.958   2.266  0.1552 -0.2731 -0.1964
 7057W        W38273  15.974  17.259   9.243 -0.0518  0.3411 -0.2258
 7058W        W38274   6.671   6.310   2.571  0.1363  0.1619 -0.2102
 7059W        W38275   0.536  24.620   0.017  0.1111 -0.2167  0.0223
 7060W        W38276   8.399   8.768   9.377 -0.3323  0.0143 -0.3245
 7061W        W38277  15.025  13.087  10.042  0.1663  0.1777 -0.0516
 7062W        W38278   2.619  25.219   1.477 -0.0981 -0.0189 -0.0608
 7063W        W38279   8.663  15.442   1.770  0.0814 -0.2943 -0.0649
 7064W        W38280   8.403  19.969   2.227 -0.3806  0.3340  0.2344
 7065W        W38281   6.420  24.993   9.518  0.0706 -0.2747 -0.1440
 7066W        W38282   1.092  11.752   0.750 -0.0484  0.1959  0.0321
 7067W        W38283  18.070   3.851   2.918 -0.2618 -0.5347  0.4156
 7068W        W38284   6.071  23.536   4.092  0.0584  0.0100 -0.2478
 7069W        W38285  22.098  14.401  10.457  0.0866 -0.0102  0.1131
 7070W        W38286  25.153   1.086   2.029  0.0107 -0.0106 -0.0658
 7071W        W38287  20.928  10.909   9.115  0.1691 -0.1578  0.0430
 7072W        W38288   6.116  15.363  10.513 -0.1849 -0.0362 -0.0181
 7073W        W38289  10.182  22.448   2.546  0.0010 -0.0629 -0.1477
 7074W        W38290   2.390  15.148   9.537  0.0154  0.1003  0.1988
 7075W        W38291  26.350   3.873   0.799 -0.1611 -0.2973  0.2426
 7076W        W38292   3.666   5.675   1.878  0.1239 -0.1080  0.4635
 7077W        W38293  23.617  11.798   9.047 -0.0693 -0.1005  0.3647
 7078W        W38294  10.864  19.274   0.833 -0.2032 -0.1316  0.2236
 7079W        W38295  16.624  10.806   2.585 -0.3410  0.2450  0.0533
 7080W        W38296  24.876   6.640   0.956  0.2918  0.0691  0.3324
 7081W        W38297  13.349   1.655   1.023 -0.0341 -0.0788 -0.1317
 7082W        W38298  27.402  15.613   8.698  0.1561  0.2385  0.0928
 7083W        W38299  18.954  24.571   2.673 -0.2633 -0.2439 -0.0559
 7084W        W38300  21.909  15.837   8.862 -0.2123 -0.0019 -0.1522
 7085W        W38301  13.417   9.288   9.544  0.2991 -0.0839 -0.0549
 7086W        W38302  25.784  18.738   0.869 -0.0399 -0.1362 -0.2127
 7087W        W38303  21.409  12.823   1.134 -0.3243  0.2344  0.0731
 7088W        W38304  22.511  20.070   6.853  0.2547 -0.2265  0.1430
 7089W        W38305  17.000   7.033   7.525  0.1697 -0.0976  0.1060
 7090W        W38306  26.076  11.484   2.443  0.0850 -0.3206 -0.0842
 7091W        W38307  10.168   1.442   8.140  0.0997  0.4323  0.2609
 7092W        W38308  10.614  26.371   8.806 -0.2027  0.2553  0.0737
 7093W        W38309  26.068   2.427   3.634 -0.1132 -0.1247 -0.0735
 7094W        W38310  25.292  19.049   1.790 -0.1895  0.2454 -0.4444
 7095W        W38311   0.902   8.708   0.991 -0.1308  0.2152  0.0779
 7096W        W38312  23.548   0.520   1.701 -0.0417  0.2957  0.3965
 7097W        W38313   1.042   1.941   1.710 -0.1816  0.0562  0.1748
 7098W        W38314  26.939  24.952   2.824  0.1584  0.1091  0.0388
 7099W        W38315   4.695  26.218   9.634  0.0966 -0.0648  0.0451
 7100W        W38316  26.607  11.485   3.455 -0.1944  0.0180  0.1954
 7101W        W38317  15.508  19.605   9.451  0.1243  0.1194  0.1304
 7102W        W38318  20.705  16.990   0.551 -0.0687 -0.1111  0.0724
 7103W        W38319   3.132   5.886   1.196  0.2741  0.0288  0.1941
 7104W        W38320   9.216   9.064   8.749 -0.0913  0.0652 -0.1667
 7105W        W38321  15.876  18.121   1.403  0.1810 -0.0830  0.0587
 7106W        W38322  11.081  21.185  10.255 -0.0150  0.1305  0.0236
 7107W        W38323   8.718   5.059   9.198  0.2602  0.2116  0.5570
 7108W        W38324  27.407   4.667   2.806 -0.1769 -0.2972  0.1362
 7109W        W38325  14.278   9.603   1.748 -0.1611  0.2800 -0.0040
 7110W        W38326  15.592  12.466   1.163 -0.1846 -0.1007  0.1816
 7111W        W38327   5.802   0.569   1.402  0.0951 -0.1121  0.0398
 7112W        W38328   9.236  14.966   9.203 -0.0403  0.1771  0.3670
 7113W        W38329   6.318  25.083   0.319  0.0897  0.0056 -0.0791
 7114W        W38330  24.646   6.181   3.455 -0.1347 -0.4121 -0.2369
 7115W        W38331   2.826  26.324   0.403 -0.0507  0.3399 -0.1639
 7116W        W38332  23.967   9.459   0.222 -0.0531  0.0885  0.0954
 7117W        W38333   3.202  25.023   3.539  0.0552  0.1254  0.1403
 7118W        W38334  14.719  15.768  10.172 -0.0081  0.0460 -0.1537
 7119W        W38335  16.550  13.014   1.529  0.2821 -0.2070  0.0130
 7120W        W38336  22.539  12.741   1.528  0.1158 -0.0017  0.1065
 7121W        W38337   9.194   3.913   2.152  0.0250  0.1613  0.4648
 7122W        W38338  25.546  13.259   9.263  0.1559 -0.0416 -0.1538
 7123W        W38339   0.410  11.530  10.111 -0.1502  0.1828  0.0336
 7124W        W38340  17.857  10.482   7.941  0.2071  0.1743  0.0148
 7125W        W38341  19.083   8.687   0.080  0.1306  0.1584  0.1760
 7126W        W38342  25.506  19.109  10.263  0.0275 -0.0995  0.0857
 7127W        W38343  13.727  21.052   2.025  0.3014 -0.0088 -0.2851
 7128W        W38344  20.723  19.867   8.066 -0.1385 -0.1766  0.2117
 7129W        W38345  10.355   5.265   1.777  0.0697  0.4602 -0.3121
 7130W        W38346  27.150  20.245   8.569  0.0849  0.1021 -0.0660
 7131W        W38347   0.544   4.625  10.068 -0.1787 -0.3349  0.0517
 7132W        W38348  23.029   7.507   9.720  0.2397 -0.1150 -0.0761
 7133W        W38349  14.932  11.819   2.634 -0.1237 -0.3797 -0.1727
 7134W        W38350  12.127  17.571   0.485  0.1026  0.1038  0.0215
 7135W        W38351   6.435   2.703   8.540  0.3014 -0.1805  0.1810
 7136W        W38352  15.123  26.186   1.697 -0.0506  0.3949 -0.2857
 7137W        W38353  26.508   9.111   1.876 -0.0013  0.1563  0.0087
 7138W        W38354   7.511  15.978   7.591 -0.1018  0.1911 -0.2139
 7139W        W38355  20.830  16.677   9.701  0.0556  0.1292 -0.0004
 7140W        W38356  20.446  24.034   8.749  0.0646  0.2742 -0.1557
 7141W        W38357  22.961  27.537   2.775 -0.0546  0.0703 -0.0388
 7142W        W38358  11.671  12.901   1.028 -0.0587 -0.1698  0.2250
 7143W        W38359   9.249   9.668   0.706  0.3995 -0.1294  0.0151
 7144W        W38360  25.415  24.174   7.938 -0.1119  0.2189  0.1136
 7145W        W38361  22.732  23.171   8.948  0.0533 -0.1354  0.1019
 7146W        W38362  16.949  16.964  10.237 -0.2128 -0.1244  0.3729
 7147W        W38363  26.529   6.160   8.705 -0.0477 -0.3169 -0.1145
 7148W        W38364  17.329  20.233   1.390 -0.2922 -0.1299  0.4862
 7149W        W38365   6.309  24.953   7.844 -0.1323  0.2207  0.1077
 7150W        W38366  15.196   4.382   2.231  0.4064  0.1934 -0.0036
 7151W        W38367   8.098  19.115   9.050 -0.0451 -0.5318  0.1550
 7152W        W38368   9.434   3.488   1.253  0.3345  0.0733 -0.0079
 7153W        W38369  18.511   2.068   2.851  0.0138  0.0826  0.2523
 7154W        W38370  10.047  11.578   1.478  0.1370  0.0120 -0.3327
 7155W        W38371  22.277  18.813   0.004  0.1622  0.1414  0.1176
 7156W        W38372  23.605  11.000   0.789 -0.2648  0.4067  0.1288
 7157W        W38373  16.632  20.816   0.061 -0.2953  0.0076  0.1267
 7158W        W38374  21.984   8.582   8.587  0.0294  0.2953  0.1638
 7159W        W38375  11.481  19.822   1.143  0.2621 -0.0281  0.3625
 7160W        W38376   7.135   2.197   1.192 -0.3253  0.2275 -0.1308
 7161W        W38377  25.737  27.428   2.074 -0.2300 -0.1316 -0.1306
 7162W        W38378  17.994  15.680   2.594  0.0175  0.1441  0.0925
 7163W        W38379  15.355   8.813  10.181 -0.0945 -0.2065  0.0114
 7164W        W38380   5.780  16.232   7.504 -0.0959  0.1374 -0.2187
 7165W        W38381  25.308   3.490   1.489  0.0542  0.1574  0.0975
 7166W        W38382  23.597  26.157   9.706  0.1228 -0.2772  0.2071
 7167W        W38383  14.384  16.364   1.810 -0.2641  0.1334  0.2638
 7168W        W38384   4.380  16.911   2.239  0.3020  0.2131  0.0706
 7169W        W38385  19.832  12.395   2.143  0.0970  0.1459 -0.1380
 7170W        W38386  16.721  16.508   3.078  0.1248 -0.1168  0.4152
 7171W        W38387   1.466   7.152   2.557  0.1110  0.0170  0.3750
 7172W        W38388   7.620  24.395   0.604  0.1354 -0.3062 -0.2206
 7173W        W38389  14.812  23.091  10.010  0.1707 -0.2917 -0.1092
 7174W        W38390   5.853   8.169   0.634 -0.0334 -0.1309 -0.4772
 7175W        W38391   8.011  12.039   0.417 -0.1456  0.3938 -0.2067
 7176W        W38392  14.694  11.000   9.072  0.0280 -0.4400  0.1385
 7177W        W38393  20.690   5.409   9.988 -0.2466 -0.1393  0.1110
 7178W        W38394  20.863  23.150   2.782  0.1927  0.5777 -0.0823
 7179W        W38395  10.873   0.975   0.089 -0.2786 -0.2155  0.1768
 7180W        W38396   4.688   5.303   0.253 -0.2615  0.0290  0.0186
 7181W        W38397  21.521  23.928   9.775 -0.0055  0.4053  0.1313
 7182W        W38398   9.838   8.993   1.305  0.0194  0.2430 -0.0857
 7183W        W38399  25.132   0.795   0.415 -0.2210 -0.1894  0.2891
 7184W        W38400  27.417   3.205   7.773  0.0451 -0.1052 -0.1537
 7185W        W38401  19.760  25.290   9.244 -0.1458 -0.1992  0.1096
 7186W        W38402  22.918  21.922   7.788 -0.1149  0.0406  0.0921
 7187W        W38403  24.036   2.847   0.914 -0.3761  0.1427  0.1081
 7188W        W38404  10.978   5.275   9.074  0.0725 -0.0442 -0.0824
 7189W        W38405   4.243   0.326   0.060  0.1946  0.0121  0.0837
 7190W        W38406  14.491   0.681   8.581  0.2219  0.3100  0.0944
 7191W        W38407  27.427   1.921   2.069 -0.0045  0.0691 -0.1921
 7192W        W38408  13.722   9.317   8.758 -0.0004  0.0419 -0.4022
 7193W        W38409  13.576   4.584   1.157  0.0749 -0.1423  0.0419
 7194W        W38410  11.303  24.703   1.554 -0.2904  0.1159  0.1366
 7195W        W38411  18.344  14.842   2.408  0.2210 -0.2791 -0.1110
 7196W        W38412  21.772  14.956   9.619 -0.0814 -0.0698  0.1153
 7197W        W38413  10.555   2.705   1.580  0.0447 -0.1962  0.4034
 7198W        W38414  21.946   4.647   0.992  0.1601 -0.3945  0.0491
 7199W        W38415  13.612  21.975   7.478 -0.4862  0.0260 -0.0330
 7200W        W38416  14.099  17.779   9.708  0.1319  0.0758 -0.1280
 7201W        W38417   1.374   8.993   0.995 -0.1423 -0.1523  0.3338
 7202W        W38418  27.061  21.006   3.510 -0.1511 -0.5015 -0.0949
 7203W        W38419   3.268  13.637   3.154 -0.3275 -0.2825  0.0295
 7204W        W38420  23.851  12.185   0.967 -0.1552 -0.0980 -0.1628
 7205W        W38421   8.089  22.543   9.406 -0.0987 -0.3933 -0.0989
 7206W        W38422  18.908   4.830   2.516 -0.3566 -0.0344  0.1787
 7207W        W38423  19.702  25.357   3.192  0.1209  0.2783 -0.0255
 7208W        W38424  19.369   9.995   9.892 -0.0185  0.1175 -0.0915
 7209W        W38425  20.094   0.489   8.554 -0.0830 -0.2827 -0.2766
 7210W        W38426  12.363  23.798   9.279 -0.2629  0.3023  0.1258
 7211W        W38427  13.403  26.901   8.182 -0.2484 -0.0529  0.0912
 7212W        W38428  12.224  13.177   7.353  0.1791 -0.2209  0.0961
 7213W        W38429   6.345  16.867   1.214 -0.0944 -0.3140 -0.1771
 7214W        W38430   9.302  15.571   1.398 -0.0673 -0.0019 -0.1548
 7215W        W38431  13.122  13.975   9.434  0.1752  0.0911 -0.2227
 7216W        W38432   4.840  21.435   0.386  0.1740 -0.0695  0.0890
 7217W        W38433  24.277  16.307  10.024  0.0215 -0.0072 -0.0694
 7218W        W38434  12.373   7.648  10.082  0.2539  0.0635 -0.2098
 7219W        W38435  16.195  10.799   2.816 -0.0848  0.0225  0.0021
 7220W        W38436  14.774  25.738  10.384 -0.0135  0.2454  0.2631
 7221W        W38437  22.882  24.529   0.721  0.0728 -0.3431 -0.1892
 7222W        W38438  10.792  14.668   3.592 -0.2053  0.0550 -0.3405
 7223W        W38439   4.773  22.757  10.361  0.1844 -0.2026 -0.0078
 7224W        W38440  17.720  17.668   7.906 -0.0072 -0.1483 -0.4968
 7225W        W38441  13.978  14.015   8.698 -0.1532  0.0712 -0.0932
 7226W        W38442  27.222  16.060   2.633 -0.1984 -0.0394 -0.1114
 7227W        W38443  23.979  23.855   9.778  0.2342  0.0445  0.1445
 7228W        W38444  10.072  17.360  10.167  0.0586 -0.0093  0.0600
 7229W        W38445  21.307  11.125   8.812 -0.0025  0.0616  0.0152
 7230W        W38446  17.644  25.117   0.889  0.2108  0.1634  0.3460
 7231W        W38447   2.173   2.982  10.082  0.0854 -0.0578  0.0748
 7232W        W38448  17.053   7.873   8.759  0.1658  0.0926 -0.2690
 7233W        W38449  11.066  24.422   0.247 -0.0537 -0.1010 -0.0960
 7234W        W38450  25.529  15.964   1.427 -0.0607  0.0874 -0.0811
 7235W        W38451   8.884  27.273   9.866 -0.3006  0.1043 -0.0533
 7236W        W38452  19.996  13.164   9.105 -0.3484 -0.0134  0.1056
 7237W        W38453   7.995  12.608   0.385  0.0984 -0.4122  0.3887
 7238W        W38454  21.193  10.430   9.124 -0.2074 -0.1381  0.0309
 7239W        W38455  13.686  27.029   2.601 -0.1630 -0.1613  0.1238
 7240W        W38456   7.539  10.231   2.058 -0.1152  0.2424  0.1144
 7241W        W38457   2.172  10.073   0.731 -0.0166  0.0754 -0.1634
 7242W        W38458  18.688  19.395  10.542 -0.1888  0.0815 -0.4039
 7243W        W38459  14.881  26.265   9.390 -0.1069  0.0673  0.1712
 7244W        W38460   9.088  15.716   9.789  0.2577 -0.1464  0.0200
 7245W        W38461  22.046  16.493   7.229 -0.0251 -0.2909 -0.2710
 7246W        W38462  11.574  25.297   2.342 -0.0952 -0.2024 -0.1764
 7247W        W38463   1.932  12.269  10.443  0.2335 -0.0278 -0.1848
 7248W        W38464   9.328   8.881   2.205 -0.2042 -0.0472  0.2146
 7249W        W38465  11.430   2.338   1.950 -0.0333  0.1968  0.0142
 7250W        W38466   2.320  17.978   2.066  0.2373  0.2113 -0.0461
 7251W        W38467  12.101  12.520   0.409  0.0030 -0.0516  0.2028
 7252W        W38468   8.342  12.774   0.801  0.1597 -0.3444 -0.2636
 7253W        W38469   4.792  11.662   0.180 -0.0329 -0.1751  0.0187
 7254W        W38470   6.250  21.450   9.195  0.0705 -0.0107  0.0607
 7255W        W38471   2.197  22.571   3.509  0.0849  0.2344 -0.2470
 7256W        W38472  25.861  10.451   3.602 -0.0647 -0.3134  0.3165
 7257W        W38473  25.694  27.325   1.601 -0.2093  0.0961 -0.2827
 7258W        W38474   4.119   6.873   7.538 -0.1123 -0.1167 -0.0782
 7259W        W38475   8.110  14.658  10.215 -0.0702 -0.0523  0.0889
 7260W        W38476  13.653  19.776   2.482  0.1885  0.2618 -0.1878
 7261W        W38477  21.388  25.233   0.060  0.0403 -0.2893 -0.2678
 7262W        W38478  19.815  14.803   8.715 -0.0825 -0.0851  0.2738
 7263W        W38479   9.029  16.597   9.959  0.2092 -0.2320 -0.3014
 7264W        W38480   2.063  13.396   2.694 -0.1492 -0.1064  0.3216
 7265W        W38481  12.451  17.678  10.289  0.1971 -0.0950  0.0897
 7266W        W38482  15.289  13.974   9.865 -0.0503 -0.1828 -0.1273
 7267W        W38483  12.284  11.712  10.441 -0.1919 -0.0067  0.2943
 7268W        W38484   7.318  12.150   0.450  0.1675 -0.2121 -0.2766
 7269W        W38485  12.568  19.068   3.503 -0.1933 -0.1425  0.0146
 7270W        W38486  26.648  18.669   0.470  0.1356 -0.2561  0.1318
 7271W        W38487  22.182  10.136   8.030  0.1890 -0.0434 -0.1567
 7272W        W38488  22.923  15.467   2.876 -0.1571  0.4363  0.1166
 7273W        W38489  14.031   4.235   4.407 -0.2957 -0.0432  0.0209
 7274W        W38490   6.324  24.839   2.664  0.1824  0.1117  0.1142
 7275W        W38491  21.620  10.427   2.751  0.1733  0.0400  0.2141
 7276W        W38492  12.277  12.632   8.174 -0.0959 -0.0245 -0.3628
 7277W        W38493   7.212  27.152   9.441 -0.1503 -0.1822 -0.1905
 7278W        W38494  17.794  25.636   0.782 -0.2276 -0.1151  0.0861
 7279W        W38495   6.991  10.730   9.473 -0.0432 -0.2123  0.2223
 7280W        W38496  12.676   5.036   7.994 -0.4027  0.0718  0.2084
 7281W        W38497  26.216  20.363   9.424 -0.0398  0.1258  0.0046
 7282W        W38498  27.526  11.761  10.258  0.1124  0.0101 -0.1949
 7283W        W38499   8.476   3.670  10.020 -0.1763  0.0094 -0.3055
 7284W        W38500   3.185  23.938   8.855 -0.1018  0.0646  0.1072
 7285W        W38501  14.868   6.576   9.728  0.0285  0.3227  0.0219
 7286W        W38502   5.426   6.046   1.405  0.0673  0.2022 -0.1006
 7287W        W38503  23.148  18.957  10.408 -0.0671  0.3108  0.3722
 7288W        W38504   7.122  18.685   0.497  0.0137 -0.2853  0.0316
 7289W        W38505  23.418  21.338   0.617  0.3597 -0.0523 -0.1846
 7290W        W38506  21.219  15.458   0.197  0.3257  0.2761 -0.2022
 7291W        W38507   8.422  13.278   8.520 -0.1814 -0.1382  0.0702
 7292W        W38508   0.059  10.562   0.647  0.2545 -0.2973  0.0383
 7293W        W38509   4.679   3.748   1.179 -0.0760  0.1753  0.0463
 7294W        W38510   7.026   3.241   9.233  0.1584 -0.1672 -0.2504
 7295W        W38511  21.886  15.493   8.480  0.0315  0.1221  0.1055
 7296W        W38512  24.900   4.199   8.518 -0.0625  0.0311  0.1637
 7297W        W38513  21.312   8.423   9.575 -0.1635 -0.0410  0.0170
 7298W        W38514  18.648   1.050  10.169 -0.0261 -0.0711 -0.2381
 7299W        W38515   9.178   2.741   8.071 -0.0492  0.2128  0.3555
 7300W        W38516  10.216   7.581   1.332  0.0882  0.0612  0.1094
 7301W        W38517  23.172   0.674   8.670  0.2117 -0.1406  0.0266
 7302W        W38518  23.550  13.558   2.280  0.1636  0.0579  0.1348
 7303W        W38519   4.276  18.510   9.008 -0.1438 -0.0106  0.1225
 7304W        W38520  16.044  17.338   9.790  0.1529  0.2547 -0.2553
 7305W        W38521  20.125  19.128   2.220 -0.1311 -0.1888  0.0396
 7306W        W38522   5.133  10.553   1.361  0.1029 -0.0528 -0.2118
 7307W        W38523  10.313  24.127  10.332 -0.0436  0.0763  0.3588
 7308W        W38524   3.315  23.421   9.641  0.1764  0.1611  0.1063
 7309W        W38525  22.311   0.645   2.182  0.0498  0.0733 -0.0865
 7310W        W38526  16.076   7.154   9.152  0.1042 -0.1342 -0.0457
 7311W        W38527   6.664  11.139   7.939  0.0054  0.3754  0.2514
 7312W        W38528   0.613  10.481   3.399 -0.0293 -0.0440  0.1574
 7313W        W38529   8.899  17.738   3.089  0.0655 -0.1324 -0.0227
 7314W        W38530  23.270   7.318   8.439 -0.2438  0.3722  0.0693
 7315W        W38531  16.043   4.336   4.275 -0.0679 -0.0260  0.1629
 7316W        W38532   8.519  13.264   9.128 -0.1944 -0.3314  0.3875
 7317W        W38533  15.053   4.939   0.633  0.0693  0.1135 -0.1707
 7318W        W38534  17.561   1.794   8.418  0.2120 -0.1013  0.0826
 7319W        W38535   6.090   9.559   3.024 -0.4232  0.0596 -0.2311
 7320W        W38536   2.871  23.010  10.231  0.1490 -0.0200  0.0006
 7321W        W38537  27.080   2.188   9.539 -0.0086  0.0720 -0.3348
 7322W        W38538   3.664   2.393   2.703 -0.1036  0.4121 -0.3249
 7323W        W38539   9.859   7.916   0.760 -0.1604 -0.1365  0.0709
 7324W        W38540  12.271   4.512   0.773  0.0591 -0.2780  0.0464
 7325W        W38541   7.172   6.793   9.131  0.1893  0.1426 -0.1775
 7326W        W38542  27.559   7.370   2.778 -0.2085  0.1404  0.0061
 7327W        W38543  11.775  26.403   2.484  0.0491  0.0055  0.3599
 7328W        W38544   3.082   8.166   0.330  0.2646  0.3077 -0.0009
 7329W        W38545  25.582   9.047   8.491  0.0720 -0.2138 -0.3734
 7330W        W38546  13.212  22.238   9.998 -0.1547  0.0554 -0.0993
 7331W        W38547   9.599  18.603   9.463  0.0906 -0.2768  0.0768
 7332W        W38548   5.288  11.422   8.219  0.1940 -0.0378  0.3131
 7333W        W38549   0.797  13.919   0.064 -0.1157  0.0670 -0.1718
 7334W        W38550  11.543  19.033   2.057  0.0495 -0.6032  0.1818
 7335W        W38551  10.540   9.029   8.781 -0.4421 -0.3787 -0.0149
 7336W        W38552   7.346  15.518   2.861 -0.1784  0.1626  0.2777
 7337W        W38553  24.623   5.447   2.272  0.0123  0.2697 -0.1587
 7338W        W38554  16.987   8.077   2.057  0.0520  0.0910 -0.1399
 7339W        W38555  15.146  25.497   0.131 -0.2242  0.1938  0.1480
 7340W        W38556  19.713   1.166   0.380 -0.0996  0.1133 -0.1052
 7341W        W38557   8.792   5.034  10.339 -0.2539  0.2413 -0.3058
 7342W        W38558   3.437   3.514  10.234  0.1512 -0.0864  0.0078
 7343W        W38559   0.429   7.783  10.413  0.0834  0.2267  0.0990
 7344W        W38560  15.781   4.084  10.127 -0.2775  0.0760  0.0084
 7345W        W38561  17.451  10.577   0.956  0.0443 -0.2423  0.1005
 7346W        W38562  23.234  25.712   7.541  0.1115  0.2807 -0.1164
 7347W        W38563  11.803  15.458   3.111  0.0274 -0.0655 -0.0757
 7348W        W38564  24.593  10.042  10.230  0.1413  0.0825  0.2840
 7349W        W38565   4.478  22.314   0.510  0.0526 -0.1447  0.4103
 7350W        W38566  18.799  17.761   0.066  0.1147 -0.0025 -0.0374
 7351W        W38567   6.019  24.723   1.152  0.0584  0.2113  0.0892
 7352W        W38568  14.970   5.558   0.235  0.0599  0.1936  0.0442
 7353W        W38569   0.497   2.566   1.008 -0.0823  0.0229 -0.1346
 7354W        W38570   7.457  20.163   2.486  0.1129 -0.1128  0.0022
 7355W        W38571   4.432   5.792   2.269 -0.0163 -0.1298  0.0669
 7356W        W38572  21.927  14.043   7.164 -0.1698 -0.2259  0.2363
 7357W        W38573  21.460   9.551   8.773  0.0662  0.0813  0.0092
 7358W        W38574  11.096   7.504   8.676  0.2394 -0.0624  0.0916
 7359W        W38575  15.599  21.984   3.197 -0.0496  0.0241  0.0998
 7360W        W38576  18.700   1.232   8.894  0.1326 -0.0926 -0.2354
 7361W        W38577   3.902  10.490   1.719 -0.1606  0.2855 -0.2421
 7362W        W38578  21.246   9.143  10.126 -0.5314 -0.0104  0.2355
 7363W        W38579  23.655  16.091   8.773 -0.1679 -0.4183 -0.2583
 7364W        W38580  25.833   4.901  10.040  0.1545  0.1850  0.0803
 7365W        W38581   0.937  23.397   8.849 -0.2095 -0.0561 -0.0171
 7366W        W38582   0.398  17.946   0.715 -0.2601  0.0207 -0.0446
 7367W        W38583  13.913   8.661   3.295 -0.3195 -0.2772  0.1368
 7368W        W38584   1.940  16.874   4.033  0.1932  0.2426  0.0604
 7369W        W38585   4.075   2.204   3.054 -0.0659 -0.1351  0.2146
 7370W        W38586  21.645  15.828   7.352  0.1347 -0.0761  0.2012
 7371W        W38587   4.188  26.118   7.760  0.0335 -0.2740 -0.0505
 7372W        W38588   3.726  17.988   9.174  0.0013 -0.1649  0.0831
 7373W        W38589  27.513  23.016   0.368 -0.1709 -0.1526  0.0085
 7374W        W38590  22.354  19.971   1.573 -0.2628 -0.2724 -0.0930
 7375W        W38591  13.233  15.704   2.941 -0.2292 -0.0092  0.0577
 7376W        W38592   8.043  26.754   2.132 -0.0754 -0.0289  0.0584
 7377W        W38593   6.692   4.384   9.895 -0.1129 -0.1679  0.1307
 7378W        W38594  10.060  18.433   8.544 -0.0220  0.2787 -0.0157
 7379W        W38595  15.611  15.545   9.187 -0.2944 -0.1313  0.0914
 7380W        W38596   1.090   8.575   2.031  0.0335  0.2223 -0.0531
 7381W        W38597   1.535   7.750   3.941  0.0794 -0.0547 -0.1690
 7382W        W38598  22.126  22.407   0.306 -0.1339 -0.0962  0.2711
 7383W        W38599   4.402  10.192   8.583  0.0284  0.0018  0.1971
 7384W        W38600   6.733  27.103   4.018  0.5251 -0.0317  0.0293
 7385W        W38601  17.968  16.189   8.495  0.2638  0.2694 -0.0221
 7386W        W38602  16.776  18.600   8.164 -0.1213  0.0987 -0.0623
 7387W        W38603   5.542  15.844   9.260 -0.0880 -0.0769  0.0039
 7388W        W38604   3.569   0.946   1.095 -0.2290 -0.0752 -0.1225
 7389W        W38605   1.700  26.521   1.259 -0.1413  0.1433 -0.2962
 7390W        W38606  14.159  24.239   9.841  0.1029  0.1122  0.2765
 7391W        W38607  20.392  16.785   8.188 -0.2947  0.0411  0.1955
 7392W        W38608  22.209   7.762   2.573  0.1193 -0.0163 -0.0972
 7393W        W38609  25.466  24.022   3.587 -0.0352  0.1050 -0.0567
 7394W        W38610  19.392   7.022   2.490 -0.2843  0.2096  0.2927
 7395W        W38611  22.769   0.467   2.375  0.0639  0.4031 -0.0224
 7396W        W38612  11.026  10.736  10.385  0.0487  0.0571 -0.1204
 7397W        W38613   2.533  16.576   8.926  0.0446 -0.0866  0.3776
 7398W        W38614   5.092   4.088   2.658  0.1999 -0.1298  0.0248
 7399W        W38615   9.240   6.610   0.945  0.1425 -0.2354 -0.0119
 7400W        W38616   4.468  15.540  10.419 -0.2970  0.1285  0.2215
 7401W        W38617   3.641  12.242   9.159 -0.2603  0.2450  0.0988
 7402W        W38618  20.771  14.454   2.195  0.2783 -0.3208 -0.1803
 7403W        W38619  11.508  21.727   3.226 -0.1111 -0.1638 -0.0945
 7404W        W38620  27.404  19.787   1.652  0.3276  0.1012  0.3148
 7405W        W38621  17.546  12.089   1.047 -0.3280 -0.2035  0.1239
 7406W        W38622  21.703  26.090   8.364  0.3461 -0.2924 -0.1065
 7407W        W38623  22.469  18.681   1.759 -0.1682 -0.3671 -0.4606
 7408W        W38624  22.469  25.814   1.425 -0.1343 -0.3775 -0.0260
 7409W        W38625   6.262   8.664   2.156  0.2564 -0.0782 -0.1218
 7410W        W38626  17.101  13.742   2.122  0.2844 -0.1127  0.1501
 7411W        W38627   7.962  24.377   1.817  0.0770 -0.0921 -0.2210
 7412W        W38628   9.387  10.030   1.383 -0.2148 -0.0055  0.2026
 7413W        W38629   2.511   3.900   8.471  0.0581 -0.2313 -0.1302
 7414W        W38630  15.230   7.863   1.693 -0.2109 -0.2032 -0.1288
 7415W        W38631   2.179  12.215   8.373  0.2443  0.1875 -0.2920
 7416W        W38632   7.078   7.449   8.076 -0.0510 -0.0578  0.0302
 7417W        W38633  27.197  19.243   0.170 -0.2212  0.0529 -0.0271
 7418W        W38634   4.380   6.397  10.439 -0.0225  0.3305 -0.0561
 7419W        W38635   6.756  25.774   9.709  0.1659 -0.2841 -0.0262
 7420W        W38636  17.656  24.141   0.113 -0.1955  0.1153 -0.1162
 7421W        W38637   7.794  13.175   9.700  0.0740 -0.1359  0.1843
 7422W        W38638  20.528  21.354   0.450  0.0749  0.0227  0.1946
 7423W        W38639  12.841  11.737   8.925 -0.0835 -0.0638  0.1005
 7424W        W38640   7.146  27.406  10.251  0.1741 -0.2145  0.0766
 7425W        W38641  24.669   5.679   3.151 -0.2616 -0.1328 -0.2822
 7426W        W38642   7.293  23.828   3.423  0.0210  0.1614 -0.1897
 7427W        W38643  11.407   5.077   8.796  0.3002  0.3544  0.2109
 7428W        W38644  15.389   6.643   9.339 -0.2339  0.0242  0.0518
 7429W        W38645  10.999   5.218   2.573  0.0850  0.0176  0.1517
 7430W        W38646  12.665  22.527   9.396  0.0015  0.3312 -0.1363
 7431W        W38647   0.217  15.398   8.763 -0.0767  0.0537  0.1491
 7432W        W38648  24.850  18.601   8.067 -0.3630  0.1119 -0.1216
 7433W        W38649  22.033  19.435   1.761  0.0041  0.2475 -0.2669
 7434W        W38650   3.693  25.279   9.371  0.0262  0.2862 -0.2405
 7435W        W38651  15.281   6.698   3.209 -0.1211 -0.1687 -0.2176
 7436W        W38652  21.573  26.623   3.551 -0.0759  0.1521 -0.1640
 7437W        W38653  23.864   6.308   0.447  0.0947 -0.1169  0.0071
 7438W        W38654  17.973  14.095   1.775 -0.0404 -0.3010  0.1039
 7439W        W38655   0.070  16.032   2.518 -0.0626 -0.2529  0.0247
 7440W        W38656  17.447   8.288   2.012  0.0060 -0.0983  0.0494
 7441W        W38657   1.791   0.043   1.776  0.2086  0.2379 -0.0235
 7442W        W38658   3.222  16.817   8.377  0.3549  0.0227  0.2440
 7443W        W38659   1.529  26.108   0.518  0.0099 -0.3494 -0.0447
 7444W        W38660  15.991   5.049   9.119  0.0438 -0.1441 -0.0905
 7445W        W38661  18.627  23.311   8.781  0.2542 -0.1380  0.0637
 7446W        W38662  26.843  24.730   0.684 -0.1279 -0.0695  0.0302
 7447W        W38663   5.571   0.402   9.545 -0.1663  0.0408 -0.0073
 7448W        W38664   1.503   9.572   0.429  0.3068 -0.0055  0.1365
 7449W        W38665   7.013   0.534   8.395 -0.1953  0.0149 -0.1405
 7450W        W38666  14.642  22.507   1.204  0.1093 -0.0959 -0.0138
 7451W        W38667  14.095  10.432   9.234 -0.2561  0.1746  0.3302
 7452W        W38668   3.851  19.545   9.910  0.1415  0.0429 -0.2175
 7453W        W38669   6.976  17.305   2.728  0.0753 -0.2031 -0.2770
 7454W        W38670  18.786   9.901   8.287 -0.4511 -0.1046 -0.2075
 7455W        W38671  24.393   9.208   9.448  0.0498  0.0018 -0.0518
 7456W        W38672  26.296   9.296   3.195 -0.1550  0.0906 -0.2552
 7457W        W38673  27.582  26.938   3.199 -0.0149 -0.1880  0.0339
 7458W        W38674  20.365  19.408   8.155  0.1509 -0.1984  0.1461
 7459W        W38675  21.820  19.661  10.273  0.3506 -0.0335  0.3232
 7460W        W38676   7.100  10.361   7.982  0.1206  0.3390  0.0072
 7461W        W38677   5.877  11.235   8.469  0.0821 -0.0456  0.4444
 7462W        W38678  15.119   2.946   2.103 -0.2346 -0.2470 -0.3567
 7463W        W38679   1.486  14.269   2.768 -0.0890  0.2578  0.6771
 7464W        W38680  21.597  27.140   3.556 -0.0595  0.2037 -0.0244
 7465W        W38681  25.008  15.167   0.086 -0.1583  0.1189 -0.0471
 7466W        W38682   1.891   1.020   9.339  0.2573 -0.2199 -0.1924
 7467W        W38683  12.935   3.256   2.120 -0.1843 -0.1675  0.3840
 7468W        W38684  21.247   4.944   3.012 -0.0882 -0.2758 -0.1683
 7469W        W38685   1.584   9.056   2.146  0.0810  0.1747 -0.0958
 7470W        W38686  17.000  18.247   7.911 -0.2796 -0.4771 -0.0611
 7471W        W38687   9.786   3.290   2.847 -0.0664 -0.0573 -0.1281
 7472W        W38688  17.470  23.978   9.948 -0.0743 -0.2371 -0.0121
 7473W        W38689  26.697  17.661   2.679  0.1211 -0.3321 -0.3243
 7474W        W38690  24.730   6.658   3.269  0.0122 -0.0384  0.2786
 7475W        W38691  18.216  11.711   8.643 -0.2595 -0.1604  0.2071
 7476W        W38692   1.268  12.716   1.929  0.3853  0.1840 -0.2032
 7477W        W38693  20.100   1.435   0.181 -0.2043 -0.0669 -0.0726
 7478W        W38694  15.708  24.083   8.380 -0.3573  0.1651  0.2461
 7479W        W38695   0.725  11.460   3.142 -0.0862 -0.1697  0.1540
 7480W        W38696  21.427   1.389   1.705 -0.4167  0.1731 -0.2769
 7481W        W38697  15.966  21.745   2.980  0.2019  0.0716 -0.0628
 7482W        W38698  19.921  10.615   0.013  0.0429 -0.0523 -0.0391
 7483W        W38699   9.730   0.113   7.691 -0.1202 -0.1522 -0.1387
 7484W        W38700  13.626   4.265   0.758  0.3511  0.2695  0.0948
 7485W        W38701  12.810   5.908   0.533 -0.1079 -0.0598 -0.1824
 7486W        W38702  20.014   2.186   1.825  0.0418  0.1360 -0.0946
 7487W        W38703  14.843  21.481   9.694  0.0318 -0.2433 -0.1014
 7488W        W38704  16.196   3.746   1.359  0.2024  0.0577  0.0660
 7489W        W38705   5.444  12.397   9.622 -0.2918 -0.3774 -0.4175
 7490W        W38706   2.225  11.577   9.760  0.1147 -0.0455 -0.1543
 7491W        W38707  20.150   8.125   8.585  0.1440  0.1499 -0.0212
 7492W        W38708  26.023  26.720   3.353  0.1323 -0.0703 -0.2271
 7493W        W38709  17.002  20.119   0.673  0.0080  0.0795  0.1186
 7494W        W38710  11.685  24.175   7.626  0.1304  0.2348 -0.0942
 7495W        W38711  17.294  19.143   8.959 -0.1032  0.0297  0.1256
 7496W        W38712  21.657   3.819   9.048 -0.1133 -0.1029 -0.2105
 7497W        W38713   3.055   5.404   9.726 -0.2043  0.0704 -0.0655
 7498W        W38714  27.385  27.143   9.578  0.2520  0.1666 -0.1525
 7499W        W38715  13.524   6.235   0.783  0.1146  0.0254 -0.0446
 7500W        W38716  27.210  14.604   3.789 -0.1064 -0.1305 -0.0670
 7501W        W38717  25.838  24.101   2.017  0.3202  0.0040  0.5374
 7502W        W38718   3.555  16.774   0.076 -0.1070  0.1961  0.0071
 7503W        W38719  16.421  21.703   9.589 -0.2904  0.2335 -0.1648
 7504W        W38720   3.023   9.262   1.652  0.0023  0.1134  0.2560
 7505W        W38721   3.743  12.165   9.717 -0.3054  0.4023  0.0030
 7506W        W38722  24.319  14.469  10.369 -0.0416 -0.3205  0.1594
 7507W        W38723  10.190  26.167  10.222 -0.0530 -0.1285  0.2045
 7508W        W38724   3.527  24.201   2.276  0.1273 -0.1368  0.0317
 7509W        W38725  18.014  18.970   3.542  0.0506  0.3305 -0.0741
 7510W        W38726  24.016   7.173   2.348  0.1633 -0.1614  0.1351
 7511W        W38727  22.963  19.342  10.131 -0.5780 -0.4735 -0.0132
 7512W        W38728   6.186  15.676   8.783 -0.4087 -0.2651  0.0189
 7513W        W38729  15.227  11.335   2.111  0.2321 -0.0170  0.0144
 7514W        W38730   3.815   7.238   7.337 -0.0458  0.3033 -0.1138
 7515W        W38731  19.019  17.836   8.865  0.1651  0.1354 -0.0283
 7516W        W38732  13.318  14.192   7.822  0.1321  0.1294  0.3680
 7517W        W38733  23.378   2.259   0.780  0.0507  0.3082  0.1340
 7518W        W38734  16.192   6.418   0.019 -0.0362 -0.0759 -0.0000
 7519W        W38735   8.411  26.801   9.007  0.0252  0.2457 -0.2030
 7520W        W38736  11.943   8.884  10.003 -0.3825  0.2094  0.0468
 7521W        W38737  26.309  24.478   8.783 -0.0966 -0.1215  0.1055
 7522W        W38738   6.542  12.524  10.221 -0.1955 -0.0316  0.1047
 7523W        W38739   8.149   4.473   1.881 -0.0106  0.1050  0.1024
 7524W        W38740  15.732  12.068   0.845 -0.1173  0.3267  0.0652
 7525W        W38741   4.548   0.264   9.187  0.1978  0.0672 -0.3037
 7526W        W38742  19.135   4.454   1.925  0.1144 -0.1532  0.0675
 7527W        W38743  26.372  19.377   0.112 -0.1484  0.0455 -0.3930
 7528W        W38744  15.341   5.335   2.619  0.0983 -0.0325 -0.2420
 7529W        W38745  10.149  18.269   9.451 -0.0645  0.0980  0.0524
 7530W        W38746  23.783  15.536   0.151 -0.0328 -0.3011  0.1065
 7531W        W38747  10.074  12.374  10.400  0.1179  0.0511 -0.0305
 7532W        W38748  12.216   2.687   8.722 -0.0100 -0.1111  0.2195
 7533W        W38749  10.862   6.021   2.083 -0.2572  0.0118  0.0382
 7534W        W38750  11.057  12.172   3.409  0.0771 -0.0356 -0.1554
 7535W        W38751   9.780  22.476   0.312 -0.0111  0.3392 -0.0053
 7536W        W38752   9.304  12.195  10.402 -0.0947  0.0794  0.1907
 7537W        W38753   8.752   4.065   9.242 -0.0792 -0.1165 -0.6405
 7538W        W38754  18.179   0.130  10.101  0.0430 -0.0759  0.2155
 7539W        W38755  26.065   3.395   1.398 -0.0682  0.0622 -0.0009
 7540W        W38756   2.187  23.531   0.263  0.1611  0.0741  0.3110
 7541W        W38757  21.314   6.743   9.032 -0.1509  0.0933  0.0513
 7542W        W38758   0.419  11.050   1.824 -0.3354  0.2823 -0.1409
 7543W        W38759   9.737   2.373   1.840  0.1927 -0.1468  0.0062
 7544W        W38760  14.256  15.241   9.091 -0.2794  0.3104 -0.1825
 7545W        W38761   0.227  11.140   9.414 -0.3955  0.0433 -0.1340
 7546W        W38762  17.280  26.246   2.312  0.1267 -0.1690 -0.3951
 7547W        W38763  10.220  20.822   8.708 -0.0773 -0.1555  0.0978
 7548W        W38764  22.704   2.534   7.865  0.3777 -0.0100  0.3226
 7549W        W38765  16.186   3.894   2.939 -0.1761 -0.1619 -0.1693
 7550W        W38766  21.465   5.702   2.226  0.3185  0.0721  0.1032
 7551W        W38767  21.863  11.814   7.681 -0.0541 -0.0470  0.1054
 7552W        W38768   9.474  13.636   1.509  0.4066 -0.0847  0.0469
 7553W        W38769   8.875   2.832   9.827 -0.2266 -0.2778  0.0014
 7554W        W38770   1.389  23.763   8.500 -0.1672  0.1052 -0.3771
 7555W        W38771   9.244   6.727  10.372 -0.0289  0.1026  0.4036
 7556W        W38772   8.565   6.709   7.488  0.1732  0.1548 -0.0242
 7557W        W38773  26.005  25.885   9.489 -0.0032  0.1205  0.1869
 7558W        W38774  14.475  22.773   0.604 -0.1833  0.2251 -0.1704
 7559W        W38775   0.726   8.089   3.602 -0.0870  0.2644  0.1500
 7560W        W38776   1.026  11.508   8.293  0.1970 -0.0062  0.0906
 7561W        W38777  25.658  15.579   3.170 -0.0799  0.7309  0.0247
 7562W        W38778   9.934  21.111   1.674 -0.0173  0.4458 -0.1760
 7563W        W38779  23.035  22.607   0.201  0.0241 -0.2777  0.0742
 7564W        W38780   6.027  26.751   2.681  0.3084 -0.4880  0.1815
 7565W        W38781  20.828   4.232   3.583 -0.0669  0.2620 -0.0752
 7566W        W38782  13.236  19.016   0.454 -0.1779  0.4554 -0.2316
 7567W        W38783  24.483  12.184   0.319  0.0438 -0.1961  0.0371
 7568W        W38784   9.970  25.035   8.478  0.0091  0.1181  0.0613
 7569W        W38785  24.963  18.111   8.096 -0.2195 -0.1498 -0.0329
 7570W        W38786  10.875   0.636   9.496  0.2038  0.1503  0.2987
 7571W        W38787   9.478   8.532   7.947  0.0154  0.1276 -0.1777
 7572W        W38788   8.958  21.672   7.220  0.0797 -0.1220  0.2448
 7573W        W38789   0.124  17.337   1.953  0.0484 -0.2191 -0.2877
 7574W        W38790   2.269  21.016  10.287 -0.1616  0.2908  0.0485
 7575W        W38791  24.314  27.509   1.388  0.3921 -0.1718 -0.0568
 7576W        W38792  21.511  16.399   8.106  0.0962  0.0670  0.2628
 7577W        W38793   8.306   7.193   2.200 -0.0841 -0.0880  0.1461
 7578W        W38794  18.589   5.216   2.846 -0.0193 -0.0559  0.0076
 7579W        W38795   1.044   6.271   1.523  0.0318  0.0203 -0.0754
 7580W        W38796   9.146  25.991   9.058 -0.1056  0.0605  0.0046
 7581W        W38797  17.502  22.363  10.209  0.0612  0.0491 -0.2892
 7582W        W38798  22.283  11.055  10.323 -0.1212 -0.2604  0.1393
 7583W        W38799  12.284  12.479   1.847  0.1420  0.1922 -0.0785
 7584W        W38800  18.204   9.539   7.691  0.1599 -0.3026 -0.0063
 7585W        W38801  26.015  18.537   1.898 -0.0803 -0.1391 -0.1735
 7586W        W38802  26.803   9.141   3.951  0.2484  0.2828 -0.0565
 7587W        W38803  23.091  23.161   3.541  0.1067  0.1404  0.3426
 7588W        W38804  27.280  20.563   3.097  0.1421 -0.1760  0.2046
 7589W        W38805  18.025  26.731   9.886 -0.0485 -0.2238 -0.3064
 7590W        W38806   4.826   3.662   8.952 -0.0755  0.0249  0.0872
 7591W        W38807  26.793  16.676   8.031  0.1063  0.1371 -0.0447
 7592W        W38808   3.686  20.847   0.500 -0.1547  0.2367 -0.1913
 7593W        W38809  24.511  26.586   9.633  0.0733  0.0462 -0.1743
 7594W        W38810  13.150  25.583   9.565  0.2705  0.0631  0.0912
 7595W        W38811  16.182   6.212   7.176  0.0744 -0.3399  0.0311
 7596W        W38812   7.945   2.112   8.211  0.2687 -0.1198  0.0924
 7597W        W38813   0.532  27.143   9.730 -0.0990 -0.1614 -0.0848
 7598W        W38814  23.887  23.146  10.375  0.0285 -0.1712 -0.1020
 7599W        W38815   4.954  18.641   0.105 -0.1623 -0.1759 -0.1471
 7600W        W38816  19.068   8.092  10.163  0.1331  0.4256  0.3504
 7601W        W38817  26.297  18.348   9.852  0.0249  0.0882 -0.1000
 7602W        W38818  23.323   9.731  10.284 -0.2846  0.2153  0.0633
 7603W        W38819   3.840  23.873   3.875  0.0587  0.3108 -0.3138
 7604W        W38820   2.886   3.774   3.125 -0.0776  0.0003  0.1611
 7605W        W38821  23.371   8.404   8.798 -0.0884 -0.1544  0.1889
 7606W        W38822   9.091   1.007   8.448  0.1352 -0.2021 -0.2199
 7607W        W38823  13.045  26.365  10.098  0.1423 -0.0321  0.0530
 7608W        W38824  23.078  11.146   0.775 -0.0451 -0.0442 -0.2282
 7609W        W38825   8.633  21.283   2.340 -0.0503  0.1910  0.0314
 7610W        W38826  25.763  17.800   7.885 -0.1753  0.1581 -0.3460
 7611W        W38827   4.964  16.876   0.574 -0.2137 -0.3691  0.0017
 7612W        W38828   7.560   3.022   2.856  0.2516  0.0023 -0.1537
 7613W        W38829  18.030   6.884   0.140 -0.0017 -0.3878 -0.4903
 7614W        W38830  27.204  17.069   1.484  0.1236  0.0905 -0.0526
 7615W        W38831  21.671  17.664   9.224 -0.0634  0.0574  0.1160
 7616W        W38832  14.344   6.759   1.074 -0.2787 -0.0251 -0.0946
 7617W        W38833  13.022  20.196   7.823  0.1948 -0.2085  0.2187
 7618W        W38834  21.296  23.201   1.964  0.1491 -0.1475  0.2044
 7619W        W38835  26.187  15.349   8.171  0.1988 -0.2709  0.2963
 7620W        W38836   4.207  23.047   2.710 -0.0450  0.4162 -0.1833
 7621W        W38837   0.903  11.372   2.178  0.0101 -0.0742 -0.1321
 7622W        W38838  11.054  20.850   7.873  0.3389  0.0709 -0.3246
 7623W        W38839  15.098  25.071   9.925  0.3302  0.0284 -0.2130
 7624W        W38840  13.161   9.177   3.403 -0.1405  0.2388 -0.1062
 7625W        W38841  20.132  19.498   8.674  0.0432  0.1680  0.1260
 7626W        W38842   7.015  20.287   1.298 -0.1358  0.0899  0.3543
 7627W        W38843   7.809   4.620   9.840 -0.1215 -0.0596  0.2037
 7628W        W38844  26.881  20.670   0.029 -0.2479 -0.1549 -0.1832
 7629W        W38845  24.605   3.098   9.238 -0.0799 -0.1812  0.0048
 7630W        W38846  13.530  26.092  10.183 -0.0863  0.1860 -0.4516
 7631W        W38847  12.117  21.070   1.831 -0.2782 -0.1352  0.0180
 7632W        W38848   4.310  22.681   7.486 -0.0357  0.0959 -0.2520
 7633W        W38849  22.520   6.412   0.890  0.3356  0.0432 -0.0785
 7634W        W38850   2.652  10.229   3.054 -0.1010  0.0318 -0.0962
 7635W        W38851  23.289  25.366   7.958  0.1362 -0.0884 -0.0408
 7636W        W38852  13.610  11.664   2.913  0.0028 -0.1834  0.0271
 7637W        W38853   7.031   1.639   7.293  0.1243  0.0288 -0.1573
 7638W        W38854   4.580  12.009   7.312 -0.0609 -0.1534 -0.1849
 7639W        W38855   3.975  11.906   2.482  0.0570 -0.0391 -0.1442
 7640W        W38856   2.827  22.214   8.692 -0.1245 -0.1931  0.0382
 7641W        W38857   7.129  10.812   0.983  0.4521  0.0459 -0.0794
 7642W        W38858  16.887  26.323   9.948 -0.0613 -0.0334  0.1372
 7643W        W38859  17.372  17.058   8.467  0.1281 -0.0230  0.0572
 7644W        W38860  26.227  20.914   1.187  0.0653  0.0311 -0.2362
 7645W        W38861   0.853   4.620   0.920  0.0400  0.1423 -0.1240
 7646W        W38862   9.362   7.895   2.844  0.3902 -0.3936 -0.0295
 7647W        W38863  26.895   7.304   0.396  0.1408 -0.1345 -0.1362
 7648W        W38864  19.043  16.564   9.809  0.0482 -0.0502  0.3300
 7649W        W38865   1.767   6.095   2.394  0.0789 -0.2971  0.0552
 7650W        W38866  21.006  23.501   8.075 -0.1333  0.2012 -0.1427
 7651W        W38867   2.294  11.467   1.730  0.4392 -0.5370 -0.0133
 7652W        W38868  25.961  20.479   3.001 -0.0387 -0.0204  0.0364
 7653W        W38869   8.453   9.865   1.907 -0.1776 -0.0869  0.0458
 7654W        W38870   1.478  24.901  10.120  0.1420  0.1819 -0.1314
 7655W        W38871   1.237  17.845   8.671 -0.0087  0.2562  0.1168
 7656W        W38872   4.649  25.571   8.889  0.0684 -0.1979 -0.0286
 7657W        W38873   4.364  25.100   2.820  0.0973 -0.2692  0.1488
 7658W        W38874  27.024   3.087   0.006 -0.1548  0.1232  0.2106
 7659W        W38875  23.797  10.221   8.280  0.1295  0.0590  0.2493
 7660W        W38876  16.956   0.644   9.684 -0.1194  0.2425  0.2838
 7661W        W38877   8.421  24.319   3.504  0.0736  0.0350 -0.0259
 7662W        W38878  16.605  16.701   2.651 -0.1497  0.0873 -0.1934
 7663W        W38879  11.246  13.130   9.916  0.0406 -0.0382 -0.1685
 7664W        W38880   1.059  26.188   0.566 -0.0361  0.0365  0.0155
 7665W        W38881  11.492   6.730   8.145  0.0522 -0.4174 -0.2179
 7666W        W38882   7.018   2.887   9.748 -0.0344 -0.1567 -0.2719
 7667W        W38883  16.663   1.169   3.413 -0.3193 -0.1053  0.2656
 7668W        W38884  14.113  17.042   7.967 -0.0584  0.1731 -0.1278
 7669W        W38885  27.300   0.360   9.676  0.4287 -0.1996 -0.3311
 7670W        W38886  20.166   1.520   2.187 -0.0520  0.2443 -0.3627
 7671W        W38887  26.702   4.105   1.018 -0.4910  0.0516 -0.2821
 7672W        W38888  22.837   3.847   1.467  0.0549  0.1639 -0.2828
 7673W        W38889  20.015   7.725   2.249  0.0072  0.2151 -0.0231
 7674W        W38890  18.361  12.771   2.582  0.1517 -0.0040  0.2163
 7675W        W38891   9.710   4.249   8.302 -0.0990  0.0369 -0.1620
 7676W        W38892  14.258   9.189   0.026  0.0631 -0.0953  0.0974
 7677W        W38893  17.419  20.228   2.687  0.2030  0.3068  0.0381
 7678W        W38894  21.377   8.699   9.138  0.4328  0.0315  0.3271
 7679W        W38895  15.844  14.804   0.297  0.1163 -0.0269  0.0844
 7680W        W38896  26.080  11.446   1.325 -0.0479  0.0017  0.1170
 7681W        W38897   6.789  17.870   8.626 -0.2379  0.0203 -0.0205
 7682W        W38898  11.121  27.169   0.555  0.4345  0.2321 -0.0589
 7683W        W38899   5.015  22.941   8.788 -0.1735 -0.1533  0.0457
 7684W        W38900  20.772   7.741   2.759  0.1400  0.2006 -0.0221
 7685W        W38901  16.221  13.627   1.391 -0.0527 -0.2694 -0.1415
 7686W        W38902  24.569  21.693   1.204  0.2147 -0.0773  0.0399
 7687W        W38903  21.128  26.094   7.451  0.4533  0.0618 -0.0966
 7688W        W38904  22.556  20.431   9.510  0.1948 -0.0752  0.1286
 7689W        W38905  13.089   8.258   2.662  0.1689  0.1473  0.1178
 7690W        W38906  22.014   3.628   3.284  0.4472  0.1153 -0.0149
 7691W        W38907  23.547   8.581   2.920  0.3427 -0.1858  0.1150
 7692W        W38908  18.272  20.232   1.545  0.3898  0.2318  0.0827
 7693W        W38909   8.382   5.432   9.236 -0.0748  0.0538 -0.0564
 7694W        W38910   6.286  19.338   8.355  0.0521 -0.1834 -0.2066
 7695W        W38911   9.272  20.672  10.354  0.1579  0.0327  0.1988
 7696W        W38912  12.317  22.282   1.675 -0.1209  0.0331 -0.1324
 7697W        W38913  25.074   7.227   2.800 -0.0481 -0.0092  0.1402
 7698W        W38914  17.000   0.337   0.165  0.0220 -0.0808  0.0689
 7699W        W38915   0.362   1.379   0.606 -0.0983 -0.2066  0.2004
 7700W        W38916  11.422   4.833   0.971 -0.1654 -0.2265 -0.1841
 7701W        W38917  20.900   1.190   1.551 -0.1944 -0.1393  0.1014
 7702W        W38918  23.386  23.335   3.089  0.1307 -0.0463 -0.0993
 7703W        W38919  18.159  15.103  10.353 -0.2919  0.1488 -0.1343
 7704W        W38920  20.613  24.754   0.397  0.2450 -0.0237  0.0633
 7705W        W38921   4.051  25.938   3.367 -0.2044 -0.0524 -0.2181
 7706W        W38922   5.870  26.959   2.282  0.0098 -0.1503  0.3209
 7707W        W38923  26.011   4.605  10.395  0.2030  0.1929  0.0676
 7708W        W38924  19.410   8.446  10.314 -0.2666  0.0948 -0.1216
 7709W        W38925  14.057   9.225   3.217  0.0472 -0.1251  0.1611
 7710W        W38926  25.386   6.813   2.530 -0.0399 -0.1790  0.0924
 7711W        W38927  13.704  10.347   0.862  0.0371 -0.2725  0.1527
 7712W        W38928   8.996  24.647   0.741 -0.1103  0.1585 -0.0643
 7713W        W38929  10.522   7.079  10.436  0.2152  0.2642  0.0705
 7714W        W38930  16.498   6.893   1.708  0.1734  0.1990  0.1247
 7715W        W38931  21.357  13.245   2.321 -0.0593 -0.0377 -0.1616
 7716W        W38932   1.804   5.283   0.036  0.1719  0.1141 -0.1649
 7717W        W38933   7.251   7.297   0.724  0.2051 -0.1862  0.1446
 7718W        W38934  21.476  11.633  10.094 -0.1697  0.1415  0.0346
 7719W        W38935  25.610   3.666   3.931  0.1363  0.0803  0.2192
 7720W        W38936   8.776  26.705   7.787 -0.0912  0.1616 -0.1016
 7721W        W38937  12.159  17.944   0.110  0.1593 -0.0392  0.1936
 7722W        W38938   8.988   3.475   1.315 -0.1610  0.3085 -0.0296
 7723W        W38939  26.154  12.849   9.138 -0.2964  0.0055 -0.0361
 7724W        W38940   2.774   6.151   3.665 -0.1777 -0.3385 -0.1730
 7725W        W38941  17.087  15.578   3.139 -0.2686 -0.0900 -0.0345
 7726W        W38942  22.472   3.037   9.966  0.2628 -0.0274 -0.1078
 7727W        W38943  12.051  15.165   9.378  0.0150 -0.1818  0.3511
 7728W        W38944   8.859  25.308   8.997  0.1199  0.0443  0.0551
 7729W        W38945  25.888  17.280   8.819 -0.1811 -0.2281 -0.3456
 7730W        W38946   8.499   0.647   2.292  0.1557  0.1099 -0.2817
 7731W        W38947   2.463  14.331  10.141 -0.1183  0.1433  0.7452
 7732W        W38948  11.910   0.600   8.082  0.1335 -0.1960 -0.2161
 7733W        W38949  12.997  12.787   3.082  0.1190  0.0188  0.2097
 7734W        W38950  16.934  10.424   9.309 -0.0020 -0.0098 -0.1225
 7735W        W38951  21.776  26.560   8.457  0.0166  0.0718 -0.0348
 7736W        W38952  24.365  26.108   2.622 -0.1788  0.3425  0.1432
 7737W        W38953   2.959   3.033   2.541  0.1208  0.1956  0.3485
 7738W        W38954  16.017  26.794   3.338 -0.2303 -0.4750 -0.0498
 7739W        W38955   4.596  26.816   0.819  0.3507 -0.2153  0.0719
 7740W        W38956   3.039  12.989   7.268  0.1068 -0.0691 -0.1061
 7741W        W38957  18.375  15.999   7.585 -0.3067 -0.0202  0.0031
 7742W        W38958   5.454  12.552   1.502  0.0863  0.1626 -0.2156
 7743W        W38959  15.358  23.430   9.734 -0.3415  0.0566 -0.0588
 7744W        W38960  27.470  24.651  10.497 -0.3021 -0.1819 -0.3319
 7745W        W38961   1.421  15.168   8.611  0.0814 -0.1175  0.1153
 7746W        W38962   7.461  22.103   2.826 -0.2158 -0.4086 -0.1694
 7747W        W38963  26.812  27.170   7.834  0.1993 -0.2273 -0.0302
 7748W        W38964  23.790  23.845   8.406  0.2387  0.2157 -0.1191
 7749W        W38965   3.902  26.409   0.152  0.1516 -0.1321  0.2531
 7750W        W38966  14.298  13.334   9.297 -0.2787  0.2107  0.0855
 7751W        W38967  26.312  15.768  10.244  0.0214  0.1330 -0.0548
 7752W        W38968   6.852   6.638   1.656  0.1914  0.0322  0.1361
 7753W        W38969  18.374   1.513   0.414 -0.0497  0.3663 -0.3850
 7754W        W38970  10.350   9.392   9.825  0.1390 -0.0821  0.2759
 7755W        W38971  25.587  15.765   9.246  0.1180 -0.0420  0.2518
 7756W        W38972  14.889  18.379   0.536 -0.1669 -0.3484  0.3431
 7757W        W38973   8.115  12.229   1.169  0.3754 -0.1633 -0.1430
 7758W        W38974  19.419   9.476   2.497  0.1103 -0.0492  0.5011
 7759W        W38975  18.062  24.618   8.634  0.1200  0.1630 -0.3283
 7760W        W38976  15.324   7.354   0.635  0.1086  0.1164  0.3828
 7761W        W38977   3.766  15.346   2.367 -0.1339  0.1399  0.0509
 7762W        W38978   7.910  27.174   0.153 -0.1798  0.0059  0.1888
 7763W        W38979  15.496  11.477  10.213 -0.2710  0.0604 -0.1857
 7764W        W38980  15.791  16.098   2.777  0.2012  0.0259 -0.1062
 7765W        W38981  22.038  24.533   1.637 -0.3097  0.2445  0.3283
 7766W        W38982   6.315   1.830   1.013 -0.0372  0.2985 -0.0828
 7767W        W38983  14.369  12.422   8.830  0.5264  0.2649 -0.2446
 7768W        W38984   9.613   2.877   1.845  0.0396  0.3384  0.1768
 7769W        W38985  24.333   6.732   1.478 -0.1342  0.1206 -0.2098
 7770W        W38986  23.450   2.702   3.467 -0.5649 -0.2240  0.1087
 7771W        W38987   3.745   9.059   2.956  0.1003 -0.1964 -0.1476
 7772W        W38988  19.686  17.666  10.533  0.2336  0.0662  0.2650
 7773W        W38989   2.333  12.429   2.767  0.0233 -0.2553 -0.0693
 7774W        W38990  25.190  10.309   0.292 -0.1031 -0.0503  0.0695
 7775W        W38991  27.341  23.884   2.502 -0.1316 -0.0013  0.1425
 7776W        W38992  25.888   9.578  10.536 -0.1750  0.2618 -0.1580
 7777W        W38993   0.170   9.753   8.789 -0.0195 -0.0496  0.4012
 7778W        W38994  26.677  25.922   2.974  0.0105 -0.0898  0.2782
 7779W        W38995  25.538  23.318   8.227 -0.0585  0.0472  0.0146
 7780W        W38996   0.289  12.859   2.188 -0.0384  0.4824  0.2820
 7781W        W38997  22.049  25.348   8.011  0.0687  0.2999  0.2593
 7782W        W38998  11.731  25.461   1.214  0.0487  0.3334 -0.1899
 7783W        W38999  26.845  21.989   9.867 -0.1742 -0.1282  0.0478
 7784W        W39000  16.551  26.615   1.707  0.2499 -0.1040 -0.1837
 7785W        W39001  21.639  22.119   3.816 -0.2379 -0.2418 -0.1333
 7786W        W39002  10.225  26.525   9.132  0.2246 -0.3416 -0.0713
 7787W        W39003  10.609  26.077   2.821 -0.0929  0.1541  0.4393
 7788W        W39004   5.587  18.192   7.935  0.4668 -0.1217 -0.2704
 7789W        W39005  19.233   0.797   2.895 -0.0912 -0.1227 -0.2945
 7790W        W39006  23.871  15.186   8.505 -0.1926  0.3937 -0.0321
 7791W        W39007  13.586  21.848   1.815  0.1352 -0.2342 -0.1316
 7792W        W39008   4.674   6.682   2.801 -0.1529 -0.0535 -0.2204
 7793W        W39009  27.440   9.930   8.466 -0.2897 -0.2094 -0.3858
 7794W        W39010  14.941  21.026   8.595 -0.2270 -0.0394 -0.2017
 7795W        W39011  25.062  22.483   1.189 -0.2444 -0.4009  0.0881
 7796W        W39012   3.016  22.217   9.652  0.0221  0.1676  0.3774
 7797W        W39013  22.930   9.116   1.646  0.0072 -0.1042  0.0339
 7798W        W39014  26.063  22.799   7.802  0.3149 -0.3682  0.0492
 7799W        W39015   4.511  25.103   3.477 -0.1238 -0.1696 -0.0726
 7800W        W39016  18.738  17.153   9.006 -0.2533 -0.0658 -0.1905
 7801W        W39017   9.761  23.372   2.537 -0.2153 -0.4135 -0.1725
 7802W        W39018  10.144  15.497   8.690 -0.0570  0.0994  0.3763
 7803W        W39019  19.969  27.184   0.288 -0.3405  0.0893 -0.1396
 7804W        W39020  12.241   5.671   1.370  0.2598  0.1093  0.1466
 7805W        W39021   6.894   2.419   8.414  0.0526 -0.0232 -0.2421
 7806W        W39022  21.694  15.295   1.911 -0.3121  0.0180  0.3095
 7807W        W39023  22.139   9.138   2.473 -0.1019 -0.1644 -0.0438
 7808W        W39024   8.393   6.594   9.781 -0.1347  0.2819  0.3651
 7809W        W39025  14.237   0.938   0.641  0.0515  0.0548 -0.0282
 7810W        W39026  24.439  12.918   1.288 -0.1101  0.1281 -0.1861
 7811W        W39027  19.549  18.772   9.577  0.0637  0.1197  0.0540
 7812W        W39028  25.729   4.125  10.113  0.2479  0.0739  0.1465
 7813W        W39029  10.451  25.170   7.681 -0.0518  0.5387 -0.1433
 7814W        W39030  16.527  21.520  10.055  0.0658  0.0116  0.1009
 7815W        W39031  26.206  23.808   9.946  0.1853  0.1456  0.4016
 7816W        W39032  17.156  21.014   1.734  0.2350 -0.1551  0.2086
 7817W        W39033  18.682   4.230   8.069  0.0685  0.1945 -0.2441
 7818W        W39034   6.405  23.759   2.760 -0.1636  0.0131 -0.3939
 7819W        W39035   1.519  17.501   7.960 -0.0230 -0.1654  0.4274
 7820W        W39036  14.063  10.283   2.368  0.1323  0.3244 -0.1026
 7821W        W39037   3.359   9.580   2.982  0.1717  0.0711 -0.2372
 7822W        W39038  24.698  17.539   8.909 -0.0538  0.2974  0.0695
 7823W        W39039   3.630   5.721   7.715  0.0037  0.0112  0.0548
 7824W        W39040  21.078   8.406   7.797 -0.1016  0.0408 -0.0851
 7825W        W39041  18.450  26.202   2.518 -0.1281  0.1992 -0.0071
 7826W        W39042  24.668  16.751   9.607 -0.4192  0.0398 -0.3545
 7827W        W39043   6.257  13.353   1.626 -0.0268 -0.0318 -0.0584
 7828W        W39044  20.194   5.736   3.094 -0.1897 -0.1494 -0.2696
 7829W        W39045   9.614   4.303  10.367  0.1902 -0.1822  0.0382
 7830W        W39046  15.796  10.420   2.726  0.0702 -0.0489 -0.0843
 7831W        W39047   6.690   1.072   2.858 -0.2210  0.0312 -0.0653
 7832W        W39048  13.999  12.477   1.856 -0.0169 -0.1213  0.2071
 7833W        W39049   4.693  15.093   2.488  0.1651 -0.1296  0.0093
 7834W        W39050  11.011  12.870   0.610 -0.2395 -0.4925  0.0562
 7835W        W39051  27.267  15.907   1.607  0.0337 -0.1831  0.0287
 7836W        W39052  19.064  24.703  10.329  0.1252  0.3211 -0.2909
 7837W        W39053   3.726  24.222   9.654 -0.0605  0.2253  0.0170
 7838W        W39054  11.421   9.735   0.750 -0.0534 -0.1475 -0.2036
 7839W        W39055  18.960  17.016  10.408 -0.0185 -0.1397 -0.1950
 7840W        W39056   4.237   3.613   1.375 -0.1983  0.3161 -0.1077
 7841W        W39057  17.457  24.237   1.409 -0.2963  0.0136  0.0668
 7842W        W39058   5.541   4.840   9.266 -0.1772 -0.1329 -0.0630
 7843W        W39059  19.058   5.150   2.912  0.1095  0.2663 -0.0472
 7844W        W39060   8.524   3.688   1.129 -0.2964 -0.1992 -0.0871
 7845W        W39061   8.900  13.018   1.987 -0.0810  0.1500 -0.0567
 7846W        W39062   7.629  22.551   1.037  0.2979 -0.2127 -0.0250
 7847W        W39063  21.044   3.659   2.733 -0.1252 -0.0230  0.2601
 7848W        W39064   4.992  27.163   0.763 -0.0304  0.0783 -0.2403
 7849W        W39065  22.991  20.536   2.860 -0.0825  0.0747 -0.0234
 7850W        W39066  14.884  23.494   8.997  0.3610 -0.1669 -0.2186
 7851W        W39067  13.001   0.301   8.929 -0.2344  0.0541 -0.0042
 7852W        W39068   2.163   0.778  10.534  0.1782 -0.2798  0.0252
 7853W        W39069  15.522   3.666   9.968 -0.2117  0.0381 -0.2275
 7854W        W39070  15.013  10.655   9.108 -0.3799  0.1073 -0.3815
 7855W        W39071   6.185   4.377   7.248 -0.0302 -0.0311 -0.2717
 7856W        W39072  13.269  15.192   0.097 -0.1215  0.2713 -0.0632
 7857W        W39073   8.019  14.857   9.623  0.1489  0.0681  0.2763
 7858W        W39074  23.874  24.657   1.698  0.0914  0.1203 -0.3265
 7859W        W39075  15.317  21.091   2.046 -0.1322 -0.1919 -0.2502
 7860W        W39076   6.722  18.849   9.126  0.1558 -0.1108  0.0818
 7861W        W39077  20.535  21.345   2.392  0.0487 -0.2283  0.0090
 7862W        W39078  27.223   1.679   1.181  0.0403  0.2265 -0.2100
 7863W        W39079   5.405   8.456   9.710  0.0788 -0.3315  0.0468
 7864W        W39080   4.883  24.462   2.759  0.0522 -0.0539 -0.3095
 7865W        W39081  10.037  24.457   0.029 -0.0089  0.0993  0.1565
 7866W        W39082  18.973   0.548   1.234  0.2435  0.3468 -0.1225
 7867W        W39083  14.217  21.288   2.971  0.3703 -0.1347  0.1488
 7868W        W39084  25.221  23.415   2.278  0.2129  0.0671 -0.2506
 7869W        W39085   2.200  15.074   1.418  0.2368 -0.4681 -0.4984
 7870W        W39086  12.110  26.189   4.084  0.1145  0.2553  0.1331
 7871W        W39087  17.092   2.267   9.317  0.0625  0.0424  0.2703
 7872W        W39088  17.030   2.135   7.973  0.1609  0.3795 -0.2217
 7873W        W39089  20.900  26.168   8.882 -0.1094  0.1510 -0.3282
 7874W        W39090   2.938  10.619   8.726 -0.0866 -0.0119  0.3640
 7875W        W39091  13.873   1.197   0.487  0.2457  0.0550  0.2239
 7876W        W39092   8.473   0.574  10.152  0.3557  0.0649  0.4472
 7877W        W39093   0.008  10.771   3.029  0.1657 -0.2810 -0.2008
 7878W        W39094   5.266  19.903   1.714  0.0098  0.1478  0.1815
 7879W        W39095   9.492   9.364   1.129 -0.0676 -0.1271  0.1957
 7880W        W39096   4.581  15.137   3.359  0.2447 -0.1092 -0.0253
 7881W        W39097  11.036  12.316  10.463  0.0585  0.1273  0.0473
 7882W        W39098  24.563  20.856   9.395 -0.0562 -0.1396  0.2211
 7883W        W39099   5.991  14.316   1.877 -0.1198 -0.1416 -0.1907
 7884W        W39100  19.390  27.397   7.097  0.1063 -0.2091 -0.2658
 7885W        W39101  10.901   5.986   1.346  0.2231  0.4542  0.0102
 7886W        W39102  27.263   4.501  10.270 -0.2811  0.1339 -0.0788
 7887W        W39103  25.765   8.757   1.041 -0.1038  0.0983 -0.1541
 7888W        W39104  24.507  25.773  10.117 -0.1418 -0.1873 -0.1010
 7889W        W39105   5.603   1.610  10.121 -0.4214  0.0216  0.0231
 7890W        W39106  12.957   1.925   1.328 -0.0240 -0.0500 -0.0789
 7891W        W39107  20.452  23.904   9.824 -0.1244  0.0979 -0.1137
 7892W        W39108  24.517   6.195   9.474  0.2292 -0.1912  0.1223
 7893W        W39109  18.923  27.608   9.192 -0.2587 -0.2969 -0.3961
 7894W        W39110   2.953  14.491   2.951 -0.2713 -0.2282 -0.0857
 7895W        W39111   2.543   1.620   9.846  0.0961  0.0128  0.2569
 7896W        W39112   6.699   2.422   3.224 -0.0945  0.1227  0.2400
 7897W        W39113  18.419  12.397   8.361 -0.2053 -0.1009  0.1317
 7898W        W39114   8.743   4.013   1.973  0.0368  0.1145  0.1895
 7899W        W39115   1.684  18.632  10.078 -0.0409  0.0193  0.2373
 7900W        W39116  18.253  18.808   3.149 -0.0053 -0.2349 -0.3998
 7901W        W39117  13.351  11.544   1.397  0.0477  0.1488  0.0343
 7902W        W39118   6.899  24.323   8.863 -0.0272  0.0131 -0.0327
 7903W        W39119  14.747  19.195   8.893  0.1015 -0.3262  0.0107
 7904W        W39120  14.099   8.905   2.855 -0.3196  0.0442  0.1549
 7905W        W39121  25.473  20.597   3.328 -0.3050  0.0951 -0.0785
 7906W        W39122  22.306  14.964   9.602 -0.2452  0.0138  0.3331
 7907W        W39123  25.512   9.376   7.877 -0.0833 -0.0739  0.0955
 7908W        W39124  19.420   9.397   1.309  0.2154 -0.1445  0.0807
 7909W        W39125  13.736   8.319   9.676  0.4296  0.3099  0.4084
 7910W        W39126  14.885  16.728   0.785  0.0470  0.1062  0.1206
 7911W        W39127   3.735  24.668   2.462 -0.1896 -0.1179 -0.0315
 7912W        W39128   2.745   6.746   2.970  0.1028  0.3607 -0.1350
 7913W        W39129  13.205  15.249   3.032  0.1153  0.2627 -0.1446
 7914W        W39130   3.435   6.733   2.755 -0.0321  0.0735 -0.3070
 7915W        W39131   4.424   1.787   0.448 -0.2011 -0.1950  0.2185
 7916W        W39132  18.309  24.295   7.937 -0.1267 -0.0922 -0.2516
 7917W        W39133  19.087  17.394   0.265 -0.0809 -0.1021 -0.1694
 7918W        W39134  25.469  13.252   2.186 -0.3406  0.1182  0.2200
 7919W        W39135  24.218  18.002  10.327 -0.0819 -0.1088 -0.0131
 7920W        W39136   3.019  27.157   0.996 -0.2389 -0.0015  0.1924
 7921W        W39137  23.913   5.062   3.402  0.1547 -0.0448 -0.2749
 7922W        W39138   2.497   1.931  10.483 -0.1936 -0.3366  0.0548
 7923W        W39139  18.669  15.854   1.349  0.3668 -0.3760 -0.0838
 7924W        W39140  18.206  18.139   2.125  0.0487 -0.0150  0.2378
 7925W        W39141  18.456   0.345   9.721 -0.3187  0.2187  0.1615
 7926W        W39142  15.554  19.452   2.051  0.0437 -0.0754  0.1224
 7927W        W39143  16.676   8.098   1.623  0.1129 -0.2098 -0.2198
 7928W        W39144  24.462  27.324   0.916  0.1013 -0.1769 -0.3656
 7929W        W39145   1.895  11.804   8.226  0.1750  0.0201 -0.4530
 7930W        W39146  14.575  25.085   0.282 -0.3889  0.1707 -0.0729
 7931W        W39147   5.098   5.623   0.934 -0.1391 -0.2545  0.0882
 7932W        W39148  10.782  22.075   0.322  0.3045  0.0746 -0.2688
 7933W        W39149   9.006  17.399   0.860  0.0207 -0.0846 -0.0654
 7934W        W39150   3.980  10.121   0.912  0.0216 -0.0188  0.3122
 7935W        W39151  24.553  18.691   9.404  0.0027  0.1524  0.0234
 7936W        W39152  16.676  19.002   8.923 -0.1042  0.0974 -0.0204
 7937W        W39153  26.120  12.999   1.073 -0.0733 -0.0303 -0.3284
 7938W        W39154  15.499   4.732   0.360 -0.0509 -0.0772 -0.2246
 7939W        W39155  16.674  27.284   8.983  0.0933  0.0014 -0.2802
 7940W        W39156   7.286   9.001   0.064 -0.0768  0.2976 -0.3201
 7941W        W39157  22.903  25.570   1.124  0.1487 -0.3059 -0.3492
 7942W        W39158  17.716  26.575   0.872 -0.0675  0.1775  0.1037
 7943W        W39159  17.685   1.219   9.729  0.4497 -0.1095 -0.0347
 7944W        W39160  15.639  27.070   3.216 -0.3846 -0.0495  0.1119
 7945W        W39161  10.312   3.569   1.590  0.0115  0.0518 -0.0891
 7946W        W39162   7.651  18.025   2.603  0.2273 -0.2255 -0.2251
 7947W        W39163  24.696  10.326   0.114 -0.0901 -0.2078 -0.2841
 7948W        W39164  23.569   5.605   8.524  0.1187 -0.2157  0.1636
 7949W        W39165  21.956  21.264   1.721 -0.1973 -0.1644 -0.1345
 7950W        W39166  22.202   0.615   1.255 -0.0274 -0.1768 -0.1274
 7951W        W39167  23.922  25.144   9.775  0.0810 -0.0234  0.1376
 7952W        W39168   4.840   7.789   2.334 -0.1138 -0.0207  0.1789
 7953W        W39169  19.430   7.186   0.143 -0.0695 -0.3066  0.1040
 7954W        W39170   2.559  12.570   2.374 -0.2648 -0.1793  0.1569
 7955W        W39171  17.011  11.973   8.378  0.0487 -0.0976 -0.1899
 7956W        W39172  18.203  21.536   8.280  0.0109 -0.1643  0.0107
 7957W        W39173   5.462   4.646   0.236 -0.2366 -0.0606 -0.1074
 7958W        W39174  23.707   2.333   8.907 -0.1768 -0.2187  0.0643
 7959W        W39175   1.433  16.052   0.058 -0.2363 -0.2296 -0.1101
 7960W        W39176   4.733   4.536   2.082  0.1321 -0.1467  0.0452
 7961W        W39177  27.467   7.191   1.671  0.1626  0.1236 -0.1421
 7962W        W39178  15.684  14.590   9.064  0.0269 -0.2236  0.1685
 7963W        W39179  16.884  12.137   1.752 -0.0703 -0.2060 -0.0371
 7964W        W39180   4.634  27.430   3.339 -0.2834  0.2397  0.1856
 7965W        W39181   6.357   5.926   0.261 -0.3004  0.2412  0.3946
 7966W        W39182   8.133  21.133  10.191 -0.1228  0.1248  0.0685
 7967W        W39183   3.137   1.087   0.851  0.0237 -0.4018 -0.1485
 7968W        W39184  25.001  10.821   2.170 -0.2075  0.0148 -0.1516
 7969W        W39185   7.907  10.013   1.701 -0.1753  0.4243 -0.1680
 7970W        W39186   8.000  11.259  10.099  0.4929  0.1052  0.0284
 7971W        W39187   8.044  25.613   3.785 -0.0449 -0.0982 -0.2203
 7972W        W39188   6.351  12.265   7.965  0.0457 -0.0423 -0.0788
 7973W        W39189  18.676   8.376   1.865 -0.0690  0.0383 -0.3422
 7974W        W39190  13.287  10.653  10.119 -0.2103 -0.0986 -0.3120
 7975W        W39191   3.349  16.071   3.157  0.0857 -0.0481  0.0742
 7976W        W39192  24.731   4.561   1.151 -0.1896 -0.0096 -0.1005
 7977W        W39193  20.395  19.754   3.399 -0.0616 -0.1795  0.0937
 7978W        W39194  23.629   4.884   9.625 -0.3119 -0.1175  0.1019
 7979W        W39195  16.341  11.270   1.283 -0.1750 -0.3438 -0.2162
 7980W        W39196  14.006   8.433   2.784  0.1579  0.1337 -0.1962
 7981W        W39197   0.867   3.235   9.000 -0.2687 -0.0812  0.1735
 7982W        W39198   3.683  26.986   9.390 -0.1653  0.2164 -0.3020
 7983W        W39199  12.617   4.733   8.783  0.1327  0.1499  0.4445
 7984W        W39200  20.921  22.333   1.684  0.0024  0.0544 -0.0368
 7985W        W39201  24.085  15.129   0.248  0.0241  0.3752  0.1271
 7986W        W39202   3.596  12.285   1.363  0.0796  0.0862 -0.2099
 7987W        W39203  22.535  15.905   9.682  0.1060  0.1073  0.3036
 7988W        W39204   6.810   8.931   9.913 -0.1045 -0.2155 -0.1184
 7989W        W39205  20.580   0.312   7.655 -0.1610 -0.1283 -0.0241
 7990W        W39206  26.532  21.812   9.478  0.1304  0.2236 -0.2975
 7991W        W39207  19.955   9.964   8.758 -0.1622  0.0423  0.3798
 7992W        W39208  21.788  19.463   7.482  0.1429  0.0763  0.0479
 7993W        W39209  17.604  21.437   0.028  0.2019 -0.1027  0.0193
 7994W        W39210  23.280   9.760   9.765  0.1318 -0.6520  0.0537
 7995W        W39211  21.931  23.518   7.321 -0.0566 -0.0220 -0.0477
 7996W        W39212  12.405   0.723   2.477  0.0284 -0.1250 -0.0282
 7997W        W39213  19.777  12.222   3.635 -0.0177 -0.1761  0.1017
 7998W        W39214  22.813   3.093   8.571 -0.2426  0.1878 -0.1720
 7999W        W39215  11.544  16.680   1.086 -0.0349  0.2756 -0.2169
 8000W        W39216  24.248  19.034   1.561 -0.0365 -0.0198 -0.1415
 8001W        W39217  11.024  26.557   8.947 -0.1350  0.0032  0.1593
 8002W        W39218  22.366   0.568   3.028 -0.1343 -0.1482  0.1558
 8003W        W39219  11.288  19.146  10.103 -0.1511  0.1699 -0.1252
 8004W        W39220  25.038   0.494   1.917 -0.2948 -0.0902 -0.0745
 8005W        W39221   5.055  25.208   3.985  0.1710 -0.1506 -0.1687
 8006W        W39222  22.372   4.192   9.334  0.1206  0.1820 -0.1468
 8007W        W39223  20.854  19.924   0.697  0.0083 -0.2691  0.2551
 8008W        W39224  12.228  25.141   9.568  0.0674  0.6061  0.2463
 8009W        W39225   2.464   9.809   8.106 -0.1386 -0.0057  0.0087
 8010W        W39226  11.471  10.748   0.669  0.1189  0.2775  0.1898
 8011W        W39227  23.996  25.744   1.271  0.0198 -0.2584  0.1365
 8012W        W39228   3.916  12.364   3.215 -0.0091 -0.4048  0.2573
 8013W        W39229  22.617   0.264  10.347 -0.1270  0.0193  0.1126
 8014W        W39230  27.281   9.964   1.311 -0.1166  0.1053  0.6360
 8015W        W39231  19.322  10.327   1.065 -0.0780 -0.0324  0.0282
 8016W        W39232  18.126  16.991  10.403 -0.3936  0.0332 -0.1548
 8017W        W39233   0.426  24.764   7.854 -0.0910  0.1227  0.0344
 8018W        W39234  23.859  23.775  10.287  0.0592  0.1862  0.0532
 8019W        W39235  21.211  20.623   9.600  0.3378 -0.2575  0.1738
 8020W        W39236  17.605   2.000   1.961  0.0386  0.1700 -0.1313
 8021W        W39237  20.765   3.870   7.737  0.0986  0.1566  0.2884
 8022W        W39238  21.747  22.169   9.950 -0.0715 -0.1233 -0.1880
 8023W        W39239  11.271  14.810   2.494  0.1055  0.1130 -0.4334
 8024W        W39240   3.436  17.508   2.281  0.3052 -0.0307  0.0271
 8025W        W39241   8.595  16.486   9.443 -0.1721  0.0617  0.1182
 8026W        W39242   0.732   5.246   1.695 -0.1876  0.0973  0.0336
 8027W        W39243  12.952  16.408  10.496  0.0036  0.0118 -0.0505
 8028W        W39244  15.176  24.491   0.426 -0.1983  0.2809 -0.1077
 8029W        W39245  11.108  25.763   7.600 -0.2886 -0.3121 -0.1001
 8030W        W39246  21.067   9.342   1.405 -0.0110 -0.1196  0.2599
 8031W        W39247   5.938   4.513   0.713 -0.5009  0.0079  0.2694
 8032W        W39248  27.400  23.415   9.335 -0.2349 -0.3066  0.0457
 8033W        W39249   8.651   2.954   7.235 -0.4331 -0.0021  0.1667
 8034W        W39250  23.477   5.141   3.006  0.0205 -0.0603  0.3859
 8035W        W39251  21.610   8.355   0.851  0.0576 -0.3101 -0.2875
 8036W        W39252  17.752  20.460   9.237 -0.0704 -0.2642  0.2270
 8037W        W39253  19.906  13.474   7.457  0.1502  0.0057  0.1376
 8038W        W39254   7.264  27.539   1.141  0.0471 -0.0344  0.4482
 8039W        W39255  25.823  22.624   1.255 -0.2803 -0.3133  0.1488
 8040W        W39256  25.259  10.108   1.098  0.1723  0.1295 -0.0590
 8041W        W39257   3.783   5.831   1.441  0.1107  0.3439 -0.1078
 8042W        W39258   8.454   7.902  10.107 -0.2164  0.0478 -0.3746
 8043W        W39259  17.371  12.666   8.920 -0.0377  0.1750  0.0033
 8044W        W39260  19.689  25.027  10.476  0.1908 -0.3295 -0.0230
 8045W        W39261  12.827  21.010   2.528 -0.0506  0.2159 -0.0107
 8046W        W39262  22.699  20.175   9.915 -0.1671 -0.0518  0.1653
 8047W        W39263  26.130   8.257   9.885 -0.0803  0.1463 -0.0593
 8048W        W39264  10.650  12.527  10.260 -0.2135  0.3732 -0.0184
 8049W        W39265  11.278  14.271   0.372  0.1214 -0.3646 -0.2008
 8050W        W39266   1.789  20.985  10.125 -0.0714 -0.0882 -0.1184
 8051W        W39267  12.279   5.159   1.974  0.1232 -0.1713 -0.1300
 8052W        W39268  20.341   5.275   9.570 -0.2876  0.2427  0.0191
 8053W        W39269  19.276   8.381   8.059  0.0641  0.0462 -0.1362
 8054W        W39270  10.152  18.330   3.035 -0.3110  0.0200 -0.0893
 8055W        W39271  12.300  17.863   1.583 -0.1905 -0.2719  0.1012
 8056W        W39272   1.182   1.257   7.412 -0.2066 -0.3034 -0.1321
 8057W        W39273   6.346  20.396   3.837  0.0429  0.0440 -0.0288
 8058W        W39274   9.530  21.233   1.391 -0.1453  0.1746  0.0071
 8059W        W39275  12.121   2.148  10.491  0.0992 -0.0804 -0.1388
 8060W        W39276  20.541   7.260   2.001  0.3230 -0.0633 -0.1334
 8061W        W39277  13.506  17.631  10.535 -0.1091  0.0549 -0.0410
 8062W        W39278  17.002   6.794   3.363  0.1984  0.2625 -0.3573
 8063W        W39279  24.322   8.208  10.271 -0.1153  0.3025 -0.2149
 8064W        W39280  16.629  12.801  10.471 -0.1581 -0.1264 -0.0679
 8065W        W39281  21.085  10.732   8.586  0.0418  0.0876  0.3060
 8066W        W39282  17.013  22.130   0.879 -0.2940  0.2378 -0.0098
 8067W        W39283  18.398  19.836   1.175 -0.0789  0.1405  0.1573
 8068W        W39284   4.946  12.599   1.529 -0.1528  0.3638  0.0423
 8069W        W39285   5.958  18.477   2.157  0.2425 -0.1180  0.0244
 8070W        W39286   4.459  24.198  10.423  0.0395  0.0728  0.1314
 8071W        W39287  12.731  21.954   8.886 -0.0285 -0.1596  0.4450
 8072W        W39288  10.021   6.186  10.366 -0.2957  0.2194 -0.2223
 8073W        W39289  17.283  16.280   1.871 -0.2945 -0.1548  0.0892
 8074W        W39290  22.046   1.001   3.120 -0.1386  0.2896 -0.1323
 8075W        W39291   9.094  26.728   2.079  0.1455 -0.0022  0.0224
 8076W        W39292  12.391  20.182  10.239 -0.0350 -0.1550 -0.0217
 8077W        W39293  17.023  21.086   8.887  0.0178  0.0205 -0.0302
 8078W        W39294   4.560   2.826   9.403  0.2022  0.0060  0.0990
 8079W        W39295  14.567  14.191   1.668  0.0932 -0.0149 -0.0758
 8080W        W39296   0.755  10.213   3.810 -0.0714 -0.1641 -0.2932
 8081W        W39297   7.184   6.513   0.887 -0.0078  0.1403 -0.0637
 8082W        W39298  26.819  12.275   9.923  0.2545 -0.0962 -0.0455
 8083W        W39299  12.461  20.307   7.871 -0.1900 -0.2973 -0.2690
 8084W        W39300  22.019  22.871   0.059  0.0741 -0.1504  0.1902
 8085W        W39301   6.088  18.650  10.389  0.2118 -0.0573 -0.0587
 8086W        W39302  12.389   9.912   3.678  0.0761  0.0033 -0.3221
 8087W        W39303  14.014  15.342  10.455  0.2494  0.3368  0.1206
 8088W        W39304  10.471  13.632   8.092 -0.0705 -0.0886  0.3095
 8089W        W39305  22.740  13.927   1.884 -0.0944  0.1291  0.2706
 8090W        W39306  23.449   3.294   9.709  0.1377 -0.3354  0.2400
 8091W        W39307  25.516  14.113   3.261  0.0962 -0.1029 -0.1774
 8092W        W39308  23.142   0.778   2.265 -0.2842  0.2758  0.1454
 8093W        W39309   9.358   6.786   9.482  0.0297 -0.1811  0.0547
 8094W        W39310  17.343  12.404   9.698  0.0450  0.2071  0.0393
 8095W        W39311  15.058  22.719   9.246 -0.0693  0.3106 -0.1759
 8096W        W39312   2.774   9.876   9.882 -0.2785  0.1904 -0.1875
 8097W        W39313   9.753   1.556   1.408  0.1244 -0.0252  0.0673
 8098W        W39314  13.297  18.470   2.655  0.2183  0.0259  0.0912
 8099W        W39315   2.881   2.106   8.647  0.0859 -0.5026  0.0398
 8100W        W39316   6.249  17.571   7.497 -0.0193 -0.3173  0.2182
 8101W        W39317  26.197  21.612   1.072 -0.0063 -0.1580 -0.0063
 8102W        W39318   5.562   7.571   0.734 -0.0237  0.1100 -0.1359
 8103W        W39319  21.428   0.160   7.572  0.2747  0.1673  0.2383
 8104W        W39320  15.274  13.428   9.666 -0.0904 -0.4528 -0.0407
 8105W        W39321  14.851   0.232   1.056 -0.1700  0.0796  0.2943
 8106W        W39322  22.408  11.971   1.839 -0.1349 -0.0268  0.2032
 8107W        W39323  14.362  21.411   9.600 -0.2052  0.3995  0.0863
 8108W        W39324  16.397   2.492   0.768  0.2803  0.3568 -0.1409
 8109W        W39325  15.653  13.033   8.991 -0.2157  0.0058 -0.0087
 8110W        W39326  20.417  25.848   3.107 -0.0649 -0.0682 -0.1871
 8111W        W39327  10.531  19.979   2.332 -0.0411  0.0179 -0.2715
 8112W        W39328  17.283   4.273   0.167  0.0645 -0.0944  0.2570
 8113W        W39329   4.709  15.054  10.292  0.1815  0.2046  0.0038
 8114W        W39330   2.233  23.829   3.075 -0.0378  0.1130  0.2079
 8115W        W39331  21.399  22.094   0.595  0.2255  0.3128 -0.0451
 8116W        W39332  12.721  15.672   1.096 -0.2827  0.1909  0.2745
 8117W        W39333  20.096   4.480   2.718 -0.3167  0.3950  0.1813
 8118W        W39334   2.979  10.237   1.497 -0.2581 -0.0771 -0.3343
 8119W        W39335   5.215   1.203   0.475 -0.1656 -0.2871 -0.3830
 8120W        W39336  26.595  14.557   1.165 -0.2363 -0.0283  0.1025
 8121W        W39337  11.063   2.323   0.327  0.1547 -0.1428  0.2498
 8122W        W39338  25.346  21.662   0.485  0.0765 -0.0649  0.0322
 8123W        W39339   3.759  27.007   1.569  0.0410  0.0426  0.2068
 8124W        W39340  14.751   6.001   0.145 -0.0886 -0.0270 -0.1207
 8125W        W39341  11.963  23.977   0.123 -0.2137  0.0445  0.0586
 8126W        W39342  25.076  16.252   1.431 -0.0822 -0.0465  0.5028
 8127W        W39343   6.790  22.721   2.060 -0.1847 -0.0488 -0.0551
 8128W        W39344  22.313  21.537   2.092 -0.1050 -0.0398 -0.1901
 8129W        W39345  27.013  12.186   1.106  0.1707  0.1746  0.4049
 8130W        W39346  26.621  25.103   1.163  0.3095  0.0599  0.4247
 8131W        W39347  25.969   2.578   0.776  0.0311  0.2244  0.2386
 8132W        W39348   8.295  16.964   8.012  0.2333 -0.0221 -0.0583
 8133W        W39349  20.598  23.983   3.226 -0.1995 -0.2850 -0.1531
 8134W        W39350  13.211  14.365   9.058  0.0722 -0.0228 -0.1570
 8135W        W39351   7.574   0.351   2.810  0.0522  0.0092 -0.0244
 8136W        W39352  16.656  11.739   8.608  0.2180 -0.0455  0.1503
 8137W        W39353   2.802  15.198   9.232  0.0178 -0.0280 -0.1033
 8138W        W39354  11.790   7.516   8.724  0.0915  0.2849  0.3714
 8139W        W39355  25.733  14.684   2.564  0.2735 -0.0988  0.2411
 8140W        W39356  15.310  16.489   8.418 -0.1326 -0.3676  0.1407
 8141W        W39357  16.556  18.101   1.357  0.0366 -0.1287 -0.0530
 8142W        W39358   2.742  26.707   1.303 -0.0048 -0.1872 -0.0266
 8143W        W39359  12.705   3.443   9.134  0.1885 -0.1045  0.1334
 8144W        W39360   5.698  23.143   2.046  0.0922  0.0265  0.1504
 8145W        W39361   1.906   6.442   9.670  0.0456 -0.0142 -0.2152
 8146W        W39362  25.013  23.772   9.104  0.0962  0.0754 -0.3401
 8147W        W39363  23.243  19.969   8.738  0.0766 -0.1278 -0.0036
 8148W        W39364   5.909   5.958   1.304 -0.1439 -0.2356 -0.1150
 8149W        W39365  26.671   3.491   9.474  0.3598 -0.0708 -0.0443
 8150W        W39366  12.130  20.046   7.536  0.0824 -0.1382 -0.1029
 8151W        W39367  20.923   2.678   8.544  0.1909 -0.0390 -0.1887
 8152W        W39368   6.934  10.055   7.581 -0.1713 -0.2156  0.1323
 8153W        W39369   2.669  11.879   3.520  0.0220 -0.2697  0.1568
 8154W        W39370  15.684   6.325  10.364 -0.0390 -0.0879  0.1929
 8155W        W39371  10.388   2.881   7.571 -0.2120  0.0476  0.0840
 8156W        W39372   6.656  25.745   0.573 -0.2123 -0.0629  0.0443
 8157W        W39373  18.085  13.194   2.604  0.0080 -0.0167  0.2540
 8158W        W39374  13.589  26.404   3.198  0.0719  0.0876  0.2259
 8159W        W39375  22.461  18.288   8.552 -0.2835 -0.0714  0.3439
 8160W        W39376  22.022  14.784  10.081 -0.1803  0.1096  0.1050
 8161W        W39377  19.128  23.586   9.413 -0.1696 -0.0425 -0.1736
 8162W        W39378  19.061   0.449   9.402 -0.2998 -0.0284  0.0634
 8163W        W39379   7.556  10.001   2.748  0.0208  0.0643  0.2802
 8164W        W39380  25.892  12.440   0.436  0.0759  0.1031 -0.3283
 8165W        W39381  24.725   0.429   0.456  0.0010  0.1787  0.0313
 8166W        W39382  15.044  12.353   0.336  0.1164 -0.0977 -0.0968
 8167W        W39383  18.672  16.209   9.215 -0.3023  0.0920 -0.1255
 8168W        W39384  20.671  18.489  10.200  0.2496 -0.2292 -0.1516
 8169W        W39385  27.008  25.071   0.203 -0.0322  0.1412  0.0567
 8170W        W39386   3.260  15.962  10.246 -0.2538 -0.3756  0.2123
 8171W        W39387   7.513  14.679   8.668  0.1619 -0.2021  0.0648
 8172W        W39388  24.200   5.606   8.585  0.0348  0.1884  0.1534
 8173W        W39389  15.834  27.609   2.339 -0.2616 -0.1968 -0.0448
 8174W        W39390  22.182  11.404   3.391 -0.2174 -0.1298  0.2136
 8175W        W39391   5.189   4.538   8.809  0.0934  0.2921  0.1239
 8176W        W39392   8.083  20.657   3.116 -0.0890  0.1979 -0.3741
 8177W        W39393  15.398  16.004   3.096  0.1552  0.0550 -0.2409
 8178W        W39394  18.419   0.820   0.075 -0.3990 -0.0983 -0.0650
 8179W        W39395  27.512  13.526   8.433  0.0515  0.1788 -0.1569
 8180W        W39396   4.434  15.689   8.931 -0.3840  0.1018 -0.2087
 8181W        W39397  15.986  14.479   1.679 -0.1088  0.1350  0.1021
 8182W        W39398  21.729   2.014   2.524  0.0562  0.1794 -0.2499
 8183W        W39399  11.347  18.833   7.897 -0.1005 -0.2680  0.0490
 8184W        W39400   0.395  15.749   2.906 -0.0410 -0.0947  0.2858
 8185W        W39401  14.007  11.704   3.119  0.1514  0.1464 -0.3982
 8186W        W39402  18.507  24.515   8.751 -0.2077  0.0591  0.0984
 8187W        W39403   2.979  25.017   2.474 -0.2401 -0.4044 -0.0519
 8188W        W39404   6.229  20.429   3.353 -0.0307 -0.1602 -0.2625
 8189W        W39405  25.589   8.335   3.033 -0.0088 -0.0159  0.2282
 8190W        W39406   7.418  14.930   1.468  0.0055  0.3127 -0.0467
 8191W        W39407  16.626  25.909  10.232 -0.2720 -0.3224  0.0651
 8192W        W39408  17.105  18.005   2.738 -0.0289  0.1323  0.0681
 8193W        W39409  26.497  19.987   9.627 -0.0505 -0.3423 -0.0244
 8194W        W39410  20.005  24.664   8.106 -0.1920 -0.0529  0.1155
 8195W        W39411   8.554   7.992   1.401  0.3015 -0.0852 -0.1516
 8196W        W39412  23.879  11.910  10.065 -0.1868  0.0539 -0.0645
 8197W        W39413   1.994   7.009   2.341 -0.1929  0.2227  0.0595
 8198W        W39414   7.869   5.098   0.015 -0.0099 -0.1312 -0.1075
 8199W        W39415   4.987   7.283   2.407 -0.0512  0.0417 -0.0838
 8200W        W39416   7.902  10.970   7.859 -0.2031 -0.1724  0.0913
 8201W        W39417  17.876   7.541   2.592  0.2783 -0.1931 -0.0446
 8202W        W39418   7.462  20.508   0.648 -0.3563 -0.1733  0.0373
 8203W        W39419  27.281   7.397   3.203 -0.0039  0.2854 -0.1039
 8204W        W39420  12.912  13.431   0.614  0.2640 -0.2698 -0.0167
 8205W        W39421  16.961  22.741   2.203  0.5284  0.0047 -0.0749
 8206W        W39422  23.273  20.998   8.001  0.2160 -0.1968  0.2296
 8207W        W39423  15.264  14.344   7.817 -0.1819 -0.3109 -0.0391
 8208W        W39424  21.976  24.801  10.116  0.0402  0.1294  0.0063
 8209W        W39425   6.108  14.235   1.346 -0.1581  0.1378  0.1719
 8210W        W39426  18.858   3.746   7.722 -0.0336 -0.0438  0.0933
 8211W        W39427   5.904   1.533   9.209  0.0799 -0.1960 -0.1072
 8212W        W39428  21.315  27.346   0.250  0.0303  0.0276  0.2613
 8213W        W39429  21.708   8.254   9.885 -0.1085  0.1013 -0.1655
 8214W        W39430  11.186   6.664   8.835  0.3656  0.0695 -0.1964
 8215W        W39431  10.482   5.776   9.320 -0.1383 -0.0240 -0.1292
 8216W        W39432  10.048   2.305   0.354 -0.0003  0.1659 -0.0932
 8217W        W39433   0.152   2.110   9.060  0.0015  0.1365  0.0422
 8218W        W39434   7.113  10.842   7.921 -0.2392  0.1528 -0.0813
 8219W        W39435  10.152  18.069   8.979  0.4309 -0.1071  0.1865
 8220W        W39436  10.060  19.278   3.553  0.0423  0.2289 -0.1628
 8221W        W39437   3.046  20.008   1.613 -0.1323 -0.0274 -0.0207
 8222W        W39438   2.517   6.231   2.743 -0.3758  0.2491  0.1338
 8223W        W39439  13.377  13.423   1.962 -0.3784 -0.3666  0.2134
 8224W        W39440  21.142   9.401   2.687  0.3011  0.1816 -0.0395
 8225W        W39441  10.643  18.883   0.631  0.0305  0.3424 -0.4454
 8226W        W39442   3.929  24.141   2.981 -0.1188  0.1215  0.0963
 8227W        W39443  12.800  27.232  10.187 -0.2526  0.0885  0.0553
 8228W        W39444  24.838  11.223   1.356 -0.1841 -0.0228  0.2898
 8229W        W39445   5.988  12.313   1.469 -0.0443  0.0055  0.0571
 8230W        W39446  27.096  12.441   2.373  0.0066 -0.0566 -0.0002
 8231W        W39447   3.397   0.084   2.017 -0.3343 -0.0482 -0.2512
 8232W        W39448   8.724  11.873   1.154 -0.2286  0.0802  0.1958
 8233W        W39449  10.593   9.833   0.930  0.0376 -0.4391 -0.1919
 8234W        W39450   4.772   4.061   1.539  0.2294  0.1947 -0.3033
 8235W        W39451   6.799  10.713  10.373  0.2100  0.0250  0.0543
 8236W        W39452   4.870  21.535   8.989 -0.1427 -0.0275 -0.3971
 8237W        W39453  24.462   1.595   3.202  0.2951  0.1331 -0.0650
 8238W        W39454  23.307  12.348   1.901 -0.2655  0.1523  0.1201
 8239W        W39455  20.732  23.027   3.252 -0.2820  0.0016  0.3917
 8240W        W39456  12.674   0.916  10.387 -0.2236 -0.0419 -0.0595
 8241W        W39457   5.931  12.655   9.408 -0.0668 -0.0128 -0.0611
 8242W        W39458  17.073   4.897   8.134 -0.0863 -0.1088 -0.3676
 8243W        W39459  26.034  10.975   0.410 -0.1953  0.0019  0.1386
 8244W        W39460  24.264   7.718   2.405 -0.2318 -0.3806  0.0646
 8245W        W39461   4.569  13.230   0.331 -0.1501 -0.3508  0.1542
 8246W        W39462   0.830   4.061   8.054  0.0488  0.1370 -0.2746
 8247W        W39463  21.180  24.892   0.409  0.2409  0.1273 -0.1777
 8248W        W39464  27.522  26.687   8.235 -0.1333 -0.0687 -0.0924
 8249W        W39465  10.285   7.480   2.973 -0.1562 -0.0713  0.0331
 8250W        W39466  10.253  26.748   9.555  0.0264  0.0715  0.0774
 8251W        W39467  11.896  17.908   8.924 -0.0505 -0.0625 -0.1886
 8252W        W39468   6.872  11.813   7.853 -0.0968 -0.0426  0.0089
 8253W        W39469  22.966  13.858   8.600  0.0299 -0.1737  0.0777
 8254W        W39470   1.458  14.862   0.291 -0.2636  0.0846  0.0024
 8255W        W39471  27.542   3.559   0.098  0.0709  0.0131 -0.0853
 8256W        W39472  19.611  15.587   8.064 -0.3127 -0.0609 -0.1910
 8257W        W39473   2.889   5.176  10.114 -0.1823 -0.1675 -0.1600
 8258W        W39474  20.098  14.576   2.505  0.1361  0.3695 -0.0769
 8259W        W39475  23.450   6.493   8.889 -0.3415 -0.2137  0.0723
 8260W        W39476   7.131  20.381  10.124  0.1637  0.1184 -0.3415
 8261W        W39477  19.130  22.980   7.907 -0.0343  0.1126 -0.0713
 8262W        W39478  11.111   6.162   8.703  0.0291 -0.1077  0.0061
 8263W        W39479   9.180  25.981   1.519  0.0447 -0.1837 -0.2210
 8264W        W39480  16.361  18.103   9.458 -0.0787  0.0476 -0.1454
 8265W        W39481  12.763  16.164   1.931 -0.1030  0.3426 -0.0035
 8266W        W39482  26.215   8.109  10.345 -0.0859 -0.1551 -0.1168
 8267W        W39483  26.389  16.647   0.291  0.1586 -0.2474 -0.0009
 8268W        W39484  25.480  21.023   1.958 -0.2346 -0.2286  0.0910
 8269W        W39485  12.741  12.868   8.319 -0.1547 -0.3590 -0.1643
 8270W        W39486   8.240  15.611   0.591  0.2702  0.1603  0.1802
 8271W        W39487  18.048  14.954   8.469 -0.0015  0.0440  0.0736
 8272W        W39488  15.389   5.214   0.325  0.1798  0.1617 -0.2852
 8273W        W39489   1.248  17.341   3.584 -0.1858  0.2039  0.1509
 8274W        W39490  13.109  11.082  10.428 -0.0821  0.1322  0.2292
 8275W        W39491   2.828  19.789   3.546  0.3557  0.0752 -0.1751
 8276W        W39492   6.293  26.457   1.030  0.0333 -0.0567  0.4118
 8277W        W39493  22.083  20.978   0.178 -0.1717  0.0386 -0.0500
 8278W        W39494  10.135   2.821   7.986  0.0027  0.1983  0.2644
 8279W        W39495  21.410   2.786   8.249 -0.0621 -0.1856 -0.0046
 8280W        W39496   2.585  25.447   3.651  0.1939 -0.0352 -0.3435
 8281W        W39497   8.064  11.003   2.237 -0.2379 -0.2006  0.2040
 8282W        W39498   1.086   7.308   0.567 -0.1864 -0.1142 -0.3347
 8283W        W39499   0.693  13.358   8.417 -0.1363 -0.2223  0.0489
 8284W        W39500  13.784   1.556   1.223  0.0372 -0.0708 -0.2269
 8285W        W39501  16.998   0.047   0.643 -0.2239  0.3561 -0.2044
 8286W        W39502  23.860  11.290   1.070  0.0177 -0.0281  0.2367
 8287W        W39503  13.963  12.734   8.086  0.0444  0.0036 -0.0731
 8288W        W39504   5.029  10.897   2.120  0.0036  0.5241 -0.2126
 8289W        W39505  24.611   9.911   0.855  0.1141  0.0909 -0.1826
 8290W        W39506  15.047  17.096   9.747 -0.3010 -0.0591  0.1460
 8291W        W39507   5.007   4.386  10.170 -0.0421  0.2944  0.0279
 8292W        W39508  24.787  25.378   9.943 -0.0509 -0.1980  0.0432
 8293W        W39509  21.726   1.084   2.638  0.0078 -0.0522 -0.3100
 8294W        W39510   7.512  13.046  10.168  0.1968  0.1345  0.1174
 8295W        W39511   3.383  18.702   8.681  0.0408  0.1128 -0.1524
 8296W        W39512   1.588  27.038   0.988 -0.0318  0.0771  0.1622
 8297W        W39513  14.036  24.799   2.330  0.0364  0.0155 -0.0668
 8298W        W39514  20.574   7.674   9.702 -0.1923  0.3505 -0.1002
 8299W        W39515   6.966  27.372   2.070 -0.2562 -0.0022 -0.2361
 8300W        W39516  26.671   0.954   0.364  0.0987  0.5238 -0.2812
 8301W        W39517   0.982  20.115   8.517 -0.1603  0.1374  0.1431
 8302W        W39518   4.209  21.690   2.763  0.0684 -0.0231  0.2681
 8303W        W39519   2.687   8.509   8.220  0.1559 -0.5017 -0.2123
 8304W        W39520  24.194  12.029   2.796  0.1907  0.0228  0.1737
 8305W        W39521   9.706   2.173   7.447 -0.1933  0.4136 -0.2728
 8306W        W39522  24.740   5.639   1.066 -0.1250 -0.4326 -0.4291
 8307W        W39523  16.042  15.911   9.118  0.2205 -0.2471 -0.1090
 8308W        W39524   0.878  20.838   8.495  0.0340 -0.2773 -0.1567
 8309W        W39525  10.557   6.091   8.496 -0.0694 -0.0540  0.1055
 8310W        W39526   4.858  11.266   2.808  0.0028 -0.1162 -0.0937
 8311W        W39527  20.497  25.524   7.868  0.1536 -0.0093 -0.2301
 8312W        W39528  16.988   6.794   1.795  0.1584  0.1674 -0.0657
 8313W        W39529   3.028  10.351  10.211  0.0475 -0.1278  0.0242
 8314W        W39530   6.586   1.138   0.475 -0.2177 -0.1568  0.3523
 8315W        W39531  27.209  16.962  10.290 -0.0898 -0.2203 -0.2763
 8316W        W39532  20.009  17.711  10.154  0.1657  0.0719 -0.1311
 8317W        W39533  20.804   2.756   1.413 -0.0863  0.2271  0.3360
 8318W        W39534  20.239  17.619   0.008 -0.0065  0.1886  0.1344
 8319W        W39535  18.728   9.091   2.369  0.0233 -0.0857  0.1500
 8320W        W39536   1.273   4.142   2.869  0.0514  0.0638  0.1325
 8321W        W39537  25.598  19.087   7.852  0.1668  0.0999 -0.0392
 8322W        W39538  20.096  16.532   9.018  0.0847 -0.1436  0.2988
 8323W        W39539  27.150  24.085   7.706 -0.0888  0.1150 -0.2142
 8324W        W39540   7.396  23.550   1.741 -0.1901 -0.1569 -0.1802
 8325W        W39541  15.397  27.031   9.367  0.0786 -0.0490 -0.0604
 8326W        W39542  19.508   0.239   1.815 -0.0759 -0.1522 -0.1940
 8327W        W39543  17.077  16.084   3.037  0.2606  0.3639  0.3848
 8328W        W39544  22.422  12.706   0.633  0.0435  0.0382  0.2564
 8329W        W39545   1.567   8.364   3.065 -0.1112  0.0455  0.0623
 8330W        W39546  23.858   0.332   7.809 -0.0478  0.0248 -0.0774
 8331W        W39547   0.630  19.058   7.726 -0.1558  0.1663 -0.2209
 8332W        W39548  22.463  22.393   7.385 -0.1643 -0.0288 -0.1966
 8333W        W39549  19.577  23.354   0.052 -0.3082  0.0133  0.0902
 8334W        W39550  21.885   3.324   1.612 -0.2884 -0.0140  0.2811
 8335W        W39551   4.222  27.063   1.236 -0.3452 -0.2146 -0.4442
 8336W        W39552   6.102   9.086   8.020  0.2505  0.0802  0.1476
 8337W        W39553  15.845  14.709  10.201  0.1597  0.2893 -0.5042
 8338W        W39554  13.616  10.609   7.764 -0.2558  0.1993 -0.1094
 8339W        W39555  27.209  21.650   8.467 -0.2847  0.3856 -0.0504
 8340W        W39556  26.417  17.923  10.455 -0.0163 -0.0072 -0.3091
 8341W        W39557  22.176  24.216   7.926  0.0579  0.3045  0.0342
 8342W        W39558  20.159   8.443   9.860  0.1289  0.2057  0.4386
 8343W        W39559  26.452   9.519  10.337 -0.1746  0.0935 -0.3489
 8344W        W39560  24.924  14.976   2.662  0.0206 -0.1900  0.0445
 8345W        W39561  19.951   1.392   1.737 -0.0591  0.1872  0.3116
 8346W        W39562  10.874  18.316   2.383  0.4159  0.0868 -0.0284
 8347W        W39563  25.918   8.850   8.819  0.1523  0.0070 -0.1083
 8348W        W39564   0.844   8.815   9.175  0.1448 -0.1461 -0.1266
 8349W        W39565  13.917  18.514   8.060 -0.1083 -0.0319  0.0982
 8350W        W39566   2.746  27.237   2.499 -0.0571 -0.1961  0.0090
 8351W        W39567  18.115   5.249   3.061 -0.0291  0.0845  0.0776
 8352W        W39568  23.575   6.856   0.787  0.2236  0.0356  0.0999
 8353W        W39569   4.017   8.770  10.182 -0.0180  0.1449 -0.0574
 8354W        W39570  24.263  23.253   9.490  0.0865  0.2369 -0.0556
 8355W        W39571   2.403   2.504   3.695  0.1933  0.1678  0.1557
 8356W        W39572  14.187  17.164   0.115 -0.0387 -0.2371 -0.0651
 8357W        W39573  21.388   8.901   7.697  0.1436 -0.2266 -0.1071
 8358W        W39574   4.606   8.824   0.812  0.1095  0.1567 -0.0195
 8359W        W39575   5.121  10.429   9.229  0.0933  0.1504 -0.0748
 8360W        W39576  11.129  27.354   1.032  0.0613  0.0044  0.2219
 8361W        W39577   9.298  27.197   2.405 -0.0742  0.4919 -0.1465
 8362W        W39578   1.685  27.537   0.878  0.1653  0.2647 -0.0244
 8363W        W39579  13.368  26.114   9.070  0.0063  0.1401  0.0737
 8364W        W39580   7.086  19.434   9.835  0.3156 -0.2081  0.1909
 8365W        W39581  19.399   2.221  10.209  0.2019 -0.1454  0.2366
 8366W        W39582  13.994  23.412   0.117  0.1012 -0.1465 -0.2442
 8367W        W39583  20.469   5.804   8.721  0.1589  0.1129  0.1947
 8368W        W39584   0.222  22.116   7.547 -0.5005  0.0296 -0.1964
 8369W        W39585  19.499  14.411   8.547 -0.1886 -0.4026 -0.2225
 8370W        W39586  19.964  23.227   2.352 -0.0879  0.1521  0.0403
 8371W        W39587  19.708  11.859   2.139 -0.0832 -0.4821  0.0971
 8372W        W39588   3.636   4.536   8.536  0.1165  0.0931  0.0442
 8373W        W39589  18.258  10.084   0.556 -0.1756  0.1283  0.4203
 8374W        W39590  11.795  18.805   1.728 -0.0975 -0.0565 -0.2224
 8375W        W39591   1.211  13.231   2.647  0.6583  0.2062  0.0141
 8376W        W39592  12.052  20.325   9.083  0.3320 -0.4875 -0.2652
 8377W        W39593  12.138  19.598   1.591  0.1237  0.1516  0.0012
 8378W        W39594   3.836   3.786  10.217  0.2868  0.3156 -0.3107
 8379W        W39595  25.885  19.965   0.658 -0.0514  0.3311  0.0517
 8380W        W39596   7.411  15.723   2.365  0.0733 -0.1207  0.3743
 8381W        W39597   1.355  21.528   9.499  0.1297 -0.0455 -0.0019
 8382W        W39598   1.084  12.296   2.295 -0.0733 -0.0166  0.2478
 8383W        W39599   1.658  10.399   8.979  0.1720  0.0772  0.3960
 8384W        W39600  17.494   8.924   0.697  0.0751 -0.0378 -0.1329
 8385W        W39601   0.628  18.244   7.995 -0.3019 -0.1021  0.2774
 8386W        W39602   1.671  12.183   3.600 -0.1473  0.1225 -0.3827
 8387W        W39603   2.854  11.308   8.711  0.1127 -0.2841  0.1679
 8388W        W39604   2.472  22.773   0.606 -0.0006 -0.1498  0.1623
 8389W        W39605  21.677  15.806  10.100 -0.1017  0.0178 -0.1468
 8390W        W39606   1.525   4.917   0.348  0.1679 -0.0633 -0.0941
 8391W        W39607   8.375  10.096  10.270  0.1948 -0.2536  0.0162
 8392W        W39608   5.461   7.392   8.287  0.1196  0.1737  0.1610
 8393W        W39609   8.760  13.006  10.121  0.0185 -0.1180  0.2516
 8394W        W39610  24.205   9.888   1.863 -0.0746  0.0042 -0.1509
 8395W        W39611  27.467   2.979   2.318  0.0361 -0.0353  0.2330
 8396W        W39612  25.990  14.310   1.816  0.1318 -0.1400 -0.0852
 8397W        W39613  12.730  23.838  10.272 -0.0654 -0.4063 -0.2876
 8398W        W39614   1.795  23.508   2.418  0.1128  0.0638 -0.0743
 8399W        W39615   9.468   5.127   9.914  0.0010  0.0524 -0.1019
 8400W        W39616   4.569   6.113   8.447  0.3121  0.3168 -0.0348
 8401W        W39617  20.625  10.116   2.341 -0.0961  0.0774 -0.2390
 8402W        W39618  18.330  21.839   3.208  0.1870  0.0359 -0.4711
 8403W        W39619  11.918   2.984   3.203  0.1863 -0.1679  0.3474
 8404W        W39620   6.016  20.281   0.136  0.3313  0.1579  0.0485
 8405W        W39621  16.082   9.964   1.943  0.2945 -0.1878 -0.0474
 8406W        W39622  17.261  14.887   1.516  0.4143 -0.0954 -0.2079
 8407W        W39623  20.323  14.809   7.754  0.0365  0.2768  0.3063
 8408W        W39624   9.996  25.557   1.535  0.1538 -0.0240 -0.5457
 8409W        W39625  16.147   7.056   2.928  0.0440 -0.0902  0.0140
 8410W        W39626  25.512  24.235   9.572  0.2622 -0.0696 -0.1156
 8411W        W39627  25.599  15.782   0.884 -0.3559 -0.1281  0.2877
 8412W        W39628  17.760  11.574   1.822 -0.1816  0.0121 -0.1549
 8413W        W39629   2.480  22.901   9.408 -0.1362 -0.1780  0.0469
 8414W        W39630   2.503   8.403   2.256  0.3016 -0.3217  0.1968
 8415W        W39631  18.978   8.103   2.686  0.0119 -0.0797  0.3337
 8416W        W39632   8.239  20.853   8.923  0.1944  0.0532  0.0272
 8417W        W39633   3.710  25.410   8.710 -0.0302 -0.0074 -0.3671
 8418W        W39634  12.679   1.519   9.505  0.0816 -0.1196  0.0375
 8419W        W39635  11.013  21.563   0.684  0.2638 -0.2168 -0.0965
 8420W        W39636  13.509  19.166  10.151  0.1147  0.1395 -0.1840
 8421W        W39637  11.188  20.427   8.776  0.1877 -0.4673 -0.1135
 8422W        W39638  17.584   8.768   2.481  0.2287 -0.1983  0.3021
 8423W        W39639   5.029   1.927   1.273 -0.0318 -0.1625  0.1187
 8424W        W39640  26.548  18.579   8.888  0.0919 -0.1460  0.1562
 8425W        W39641  12.778  19.301   0.720  0.1329 -0.0053 -0.0015
 8426W        W39642   8.831  15.161   8.325 -0.2637  0.1324 -0.1780
 8427W        W39643   6.671   6.813   9.836  0.0766 -0.1233 -0.0837
 8428W        W39644   0.613  26.316   1.853 -0.2097 -0.1218 -0.2796
 8429W        W39645  12.702   6.095   3.424  0.2248  0.2479  0.1318
 8430W        W39646  26.885  14.960   0.947  0.1048 -0.0997 -0.0666
 8431W        W39647  24.134   2.032   8.985  0.1671  0.1061 -0.2742
 8432W        W39648  13.740   4.555   2.550  0.0918 -0.0015  0.3143
 8433W        W39649  15.778   7.573   0.518  0.1049 -0.1226  0.1871
 8434W        W39650  11.575   1.138   1.242  0.2247  0.1796 -0.3162
 8435W        W39651  19.612  13.770   2.471  0.0393  0.1461 -0.1647
 8436W        W39652  26.662  20.200   1.004  0.4782 -0.0286  0.1002
 8437W        W39653  11.911   3.760   8.076  0.0551 -0.3385  0.3630
 8438W        W39654  15.213   3.339   8.570 -0.2277 -0.2326  0.2092
 8439W        W39655   7.592   9.293   1.581 -0.2015 -0.2290 -0.2156
 8440W        W39656  15.787  16.674   8.767  0.0013 -0.0727 -0.3437
 8441W        W39657   3.853  20.938   9.514 -0.1773 -0.0552  0.1411
 8442W        W39658  11.072   8.751  10.477  0.0599  0.2767  0.1457
 8443W        W39659   7.237   5.179   0.136  0.1197 -0.1742  0.1794
 8444W        W39660  15.882   5.289   9.660 -0.0671  0.0003 -0.2585
 8445W        W39661  23.927  27.414   0.952 -0.0675  0.0083 -0.0010
 8446W        W39662  18.542  16.779   2.998 -0.1822 -0.1156 -0.1287
 8447W        W39663  26.239   6.986   8.361  0.0956 -0.1684  0.2093
 8448W        W39664  20.517  20.635   9.926  0.1932 -0.2404 -0.0705
 8449W        W39665   1.483  22.072   1.668  0.2052  0.0551 -0.0600
 8450W        W39666  24.809  23.859   1.099 -0.0424 -0.1115 -0.0391
 8451W        W39667   8.972  23.864   2.862  0.1576 -0.1425  0.0617
 8452W        W39668  19.246   8.847   7.292  0.2606  0.1290  0.0130
 8453W        W39669  19.588  12.882   0.906 -0.0782  0.0169  0.0370
 8454W        W39670  20.669  20.946   2.694  0.5089 -0.2049 -0.0456
 8455W        W39671  18.469   6.010   8.204  0.1099 -0.3208  0.1062
 8456W        W39672   3.037   5.673   8.350 -0.2391 -0.1043 -0.0250
 8457W        W39673  15.768   4.806   3.364  0.3859 -0.3637  0.0826
 8458W        W39674  22.515  24.623   2.245  0.0196 -0.2709  0.0173
 8459W        W39675  16.638  12.054   2.149  0.0705  0.0512 -0.0711
 8460W        W39676  10.711  14.776  10.518 -0.3877 -0.0423 -0.0034
 8461W        W39677   5.723   3.150   1.109 -0.0020 -0.2921  0.3205
 8462W        W39678   4.291  13.392   1.322 -0.2360 -0.2750 -0.0580
 8463W        W39679  17.541  21.890   8.983  0.1297  0.0564  0.0695
 8464W        W39680  16.559  24.229   8.873 -0.1786  0.1406  0.0489
 8465W        W39681   1.735  14.056   0.460  0.0746 -0.0501 -0.3575
 8466W        W39682   7.176   2.401   0.706  0.0946 -0.0193 -0.1656
 8467W        W39683   3.800   3.270   2.645  0.2021  0.1809 -0.0468
 8468W        W39684  20.074  12.377   8.749  0.3633 -0.0857 -0.0868
 8469W        W39685   0.599  17.611   9.493  0.3687 -0.1347 -0.2131
 8470W        W39686   3.677  11.535   8.559 -0.1207 -0.1503  0.0196
 8471W        W39687  10.458  21.395   9.478 -0.0680  0.1578  0.0198
 8472W        W39688   0.496  20.593   0.018  0.2774  0.1723  0.0929
 8473W        W39689  22.331   1.519   1.390  0.0017  0.0943  0.1842
 8474W        W39690  26.891  14.303   3.563  0.0190 -0.0546  0.0074
 8475W        W39691  15.751   9.167   2.716 -0.2311 -0.2347 -0.0744
 8476W        W39692  16.234   4.875   0.544 -0.0226  0.1474 -0.2083
 8477W        W39693  27.314  14.008   1.212 -0.0129  0.2752 -0.0342
 8478W        W39694  23.429  27.584   3.059 -0.0259  0.3315 -0.0066
 8479W        W39695  24.808  13.814   9.252  0.5352 -0.1198  0.0108
 8480W        W39696   6.936  18.465   1.331 -0.0649 -0.1967  0.0326
 8481W        W39697  10.770   2.070   8.255  0.1431  0.1399  0.2581
 8482W        W39698  13.125  14.693   7.931  0.1809  0.1904  0.1065
 8483W        W39699   8.476  21.871   9.429  0.1753 -0.1934 -0.2029
 8484W        W39700   3.443   6.947   2.112 -0.3153  0.2920 -0.2536
 8485W        W39701  26.067  16.679   2.335  0.3166  0.0828  0.1590
 8486W        W39702   0.453  17.190  10.187 -0.1837 -0.1768 -0.2386
 8487W        W39703  19.558  16.392   9.735 -0.0662  0.1474 -0.0112
 8488W        W39704  15.696  24.382  10.338  0.0008 -0.0126 -0.0956
 8489W        W39705  18.203   8.974   1.423 -0.0940 -0.3710 -0.3752
 8490W        W39706   0.070  15.112   1.552 -0.0169  0.1807  0.2155
 8491W        W39707  13.436  25.060   1.837  0.3261  0.1923 -0.0189
 8492W        W39708   4.456  11.729   0.542 -0.1555  0.0366 -0.3539
 8493W        W39709   2.921  24.134   0.463 -0.1528 -0.2303  0.0131
 8494W        W39710   8.092   3.894   1.999 -0.0043 -0.1151  0.1702
 8495W        W39711  27.557  21.720   1.669 -0.2756  0.0057  0.1385
 8496W        W39712  25.206  10.314   9.163  0.4144 -0.1273  0.2071
 8497W        W39713   1.224   8.976   1.736  0.1520 -0.0715  0.1285
 8498W        W39714   6.897  15.323   1.817 -0.0926 -0.1204 -0.1077
 8499W        W39715   0.574  24.045   8.420  0.2467 -0.0584 -0.2169
 8500W        W39716  20.977  12.657   1.795 -0.1438  0.0880  0.0201
 8501W        W39717  11.826   6.280   8.187 -0.0344 -0.1121 -0.0721
 8502W        W39718   5.412  15.526   0.036 -0.2962  0.2621  0.0075
 8503W        W39719  10.080  14.377   2.539  0.2136  0.0468 -0.1499
 8504W        W39720   5.498  21.013   3.093  0.0875  0.1170  0.1827
 8505W        W39721   9.529  24.888   1.391  0.1489  0.1916  0.0390
 8506W        W39722   3.838  15.505   8.248  0.2194 -0.5147 -0.5420
 8507W        W39723  24.146   0.550   0.370 -0.4461  0.1055  0.1995
 8508W        W39724  19.463  22.864   0.148  0.0009 -0.1079  0.3450
 8509W        W39725  24.011  25.780   0.664  0.0803 -0.0247  0.0341
 8510W        W39726  10.181  12.944   0.462  0.0040  0.2419 -0.0073
 8511W        W39727  25.644   0.668   2.474  0.0806 -0.0736 -0.0596
 8512W        W39728  10.872   6.438   9.498 -0.0276 -0.1036 -0.1626
 8513W        W39729  26.700  26.114   8.213 -0.2489  0.0553 -0.0763
 8514W        W39730  23.234  11.336   8.288  0.0500 -0.0695 -0.1071
 8515W        W39731  16.296  20.597   7.594 -0.1100 -0.0558 -0.1549
 8516W        W39732   1.273  13.570   1.742  0.1077 -0.0087  0.1445
 8517W        W39733   9.702  12.505   2.154 -0.2026  0.0599  0.3814
 8518W        W39734   9.850  14.564   1.267 -0.2835 -0.0537 -0.1161
 8519W        W39735  12.585  12.609   0.494  0.1194  0.1209  0.0605
 8520W        W39736  27.592   9.615   1.733 -0.1150  0.0597 -0.5560
 8521W        W39737  10.763  22.178   2.126 -0.1716  0.1184  0.1835
 8522W        W39738  27.185  26.252   8.336  0.0029 -0.0992 -0.1408
 8523W        W39739  13.222   0.288  10.375 -0.0491 -0.1048  0.0527
 8524W        W39740  26.660   9.648   3.083 -0.0356 -0.2211 -0.0281
 8525W        W39741   8.547  14.431  10.316  0.0680  0.0831  0.0291
 8526W        W39742  16.848  10.267   1.975 -0.0519  0.2037 -0.1591
 8527W        W39743   6.506  12.858   9.786 -0.2411  0.1321  0.3331
 8528W        W39744   0.655  10.362   2.293 -0.1399 -0.1514 -0.1226
 8529W        W39745  25.133   6.619   3.027  0.2924  0.1602 -0.1701
 8530W        W39746  18.818  10.376   7.411  0.0366 -0.3132 -0.2327
 8531W        W39747  25.907  19.440  10.233  0.1791 -0.2477  0.3542
 8532W        W39748   8.174  13.081   2.014 -0.0562  0.0869 -0.0754
 8533W        W39749  24.877  18.413   0.991 -0.0648  0.1241  0.1185
 8534W        W39750   2.384   8.234   9.635 -0.2605 -0.0224 -0.2559
 8535W        W39751  12.124  12.462   9.530 -0.0978 -0.1304 -0.0847
 8536W        W39752   2.791  24.181  10.448 -0.1423 -0.0353 -0.2333
 8537W        W39753  25.733   9.665   2.957 -0.1168 -0.1502  0.2587
 8538W        W39754   0.105  26.016   1.994  0.0574 -0.2814  0.1172
 8539W        W39755   1.174  26.792   9.039  0.3275 -0.1377 -0.0193
 8540W        W39756   5.888  13.275   1.313  0.1921 -0.1928  0.2007
 8541W        W39757  21.540  15.628   1.523 -0.1188 -0.2150 -0.0689
 8542W        W39758  23.876   8.900   2.669 -0.0590 -0.0113  0.0852
 8543W        W39759  16.266  15.803   2.549 -0.0356  0.3499 -0.0944
 8544W        W39760  12.718   8.814   0.090 -0.1395  0.1027  0.2978
 8545W        W39761   9.998   3.822   8.036 -0.0952 -0.2889 -0.0531
 8546W        W39762  26.990  24.967  10.261 -0.3763  0.3063 -0.2419
 8547W        W39763   0.729   6.804   3.966 -0.0320 -0.0596 -0.0084
 8548W        W39764  12.183  13.480   1.562 -0.1879  0.2909  0.1529
 8549W        W39765   9.633   5.132   9.430  0.2525 -0.0272  0.2927
 8550W        W39766  10.978  11.220   2.336 -0.1300 -0.1197  0.1044
 8551W        W39767  20.076   1.846   0.454  0.2572 -0.0689 -0.2878
 8552W        W39768  26.215  24.360   3.563  0.1501 -0.1707 -0.0510
 8553W        W39769  23.373  15.355   1.297  0.0347  0.1660 -0.1964
 8554W        W39770   0.344  18.217   3.203 -0.1787 -0.1588 -0.2707
 8555W        W39771   4.614  18.350   7.540  0.1924  0.1456  0.1785
 8556W        W39772   3.847  16.093  10.090  0.2729 -0.0420 -0.4765
 8557W        W39773   8.654   4.074  10.287 -0.0662  0.0671  0.0697
 8558W        W39774   0.242  22.854   1.940  0.2422 -0.1691 -0.2224
 8559W        W39775  14.125  21.236   7.295  0.0701 -0.1845 -0.1174
 8560W        W39776  14.140   0.353   9.012 -0.1448 -0.0983 -0.0963
 8561W        W39777  24.993  10.772   0.407  0.1248  0.0881  0.2372
 8562W        W39778  11.898  27.020   7.848 -0.0725 -0.0738  0.0714
 8563W        W39779   9.077  10.437   2.488  0.1307 -0.2094  0.0106
 8564W        W39780  26.227   3.549   1.843  0.1728 -0.2611  0.6466
 8565W        W39781  22.801  20.253  10.420  0.0066 -0.0267  0.2648
 8566W        W39782  24.666   2.398   2.022  0.0273 -0.1131 -0.0766
 8567W        W39783  20.265  18.125   0.945 -0.1785 -0.0220  0.1623
 8568W        W39784  12.031   2.279   3.159  0.1991  0.1237 -0.1095
 8569W        W39785  15.083  17.328   3.645 -0.3926 -0.2182 -0.0346
 8570W        W39786  26.723  12.350   7.901  0.0529 -0.1958 -0.0302
 8571W        W39787  10.188  13.741   1.858  0.0463 -0.1372 -0.0043
 8572W        W39788  25.559  17.816   2.893 -0.2124  0.4131  0.2558
 8573W        W39789  27.040  21.173   2.204  0.0787 -0.1617 -0.3847
 8574W        W39790  25.604  18.454   9.479 -0.1266  0.3806 -0.1207
 8575W        W39791   4.920   4.949   8.783  0.1160 -0.0620 -0.1245
 8576W        W39792   5.643  11.437   7.642  0.0959 -0.1902 -0.2123
 8577W        W39793  12.272   6.467   3.094  0.0874  0.2362 -0.0261
 8578W        W39794  11.102  15.721   2.686  0.1985 -0.0774  0.0496
 8579W        W39795   4.577   2.272   8.190  0.0258 -0.0922 -0.1901
 8580W        W39796  15.019   9.482  10.482 -0.1427  0.2046  0.1171
 8581W        W39797  20.236   1.546   1.349  0.0269 -0.0198 -0.1690
 8582W        W39798  12.027  23.357   2.293 -0.0308  0.1897 -0.0331
 8583W        W39799  12.888  20.324  10.138 -0.2237 -0.0536  0.1697
 8584W        W39800  11.225  22.585   7.723 -0.0351 -0.0879 -0.2244
 8585W        W39801  27.442   8.900   8.281 -0.6804  0.2111  0.3542
 8586W        W39802  23.708  13.570   0.669 -0.0642  0.2728  0.0219
 8587W        W39803  25.650  16.140   0.500 -0.2579  0.0033 -0.0824
 8588W        W39804  19.212  10.949   1.337  0.1104  0.1022  0.0416
 8589W        W39805   5.908   2.404   9.796 -0.0173  0.2240  0.2061
 8590W        W39806  17.100   8.962   7.057 -0.1694  0.0315 -0.3425
 8591W        W39807   9.924  23.393   3.058 -0.1201 -0.2417  0.1481
 8592W        W39808  10.581   6.968   0.948  0.0142 -0.0779  0.3112
 8593W        W39809  18.076  14.255   2.816 -0.2042  0.0158  0.1029
 8594W        W39810   7.495  24.632   7.867  0.1575  0.1309 -0.2836
 8595W        W39811   0.013   5.262   2.271 -0.2359 -0.1506 -0.0029
 8596W        W39812  24.531   9.103   7.886  0.1009  0.0368 -0.0037
 8597W        W39813  27.528  16.341   9.292  0.0250 -0.0030  0.2635
 8598W        W39814   6.159   8.158   9.536 -0.1081 -0.0020 -0.0220
 8599W        W39815   7.474  18.171   0.586  0.2569  0.0524  0.1304
 8600W        W39816   5.872  17.202   0.490  0.1234  0.0153 -0.0952
 8601W        W39817   5.438  21.320   1.020 -0.1924  0.2256  0.0551
 8602W        W39818   9.328  23.392   0.493 -0.1065 -0.1739  0.2290
 8603W        W39819  10.953   0.929   1.229 -0.0430  0.0228  0.3050
 8604W        W39820  25.663  11.534   0.189  0.2754  0.0599 -0.0822
 8605W        W39821  22.518  14.033   2.983 -0.0140  0.0072  0.3584
 8606W        W39822   6.994   7.709   1.573 -0.0552  0.0768  0.0947
 8607W        W39823  10.621  27.424   8.916 -0.1222  0.1025  0.2685
 8608W        W39824   0.250   7.682   1.521 -0.1536  0.0568  0.0520
 8609W        W39825   6.345   6.525   2.958  0.0565  0.1977  0.0441
 8610W        W39826  22.253  12.683  10.519 -0.1635  0.3087  0.0598
 8611W        W39827  27.439  26.822   2.242  0.3555  0.0425 -0.3420
 8612W        W39828  17.461  15.804   8.074 -0.1899  0.0799 -0.3019
 8613W        W39829  22.636   8.170   9.258 -0.1354  0.1373  0.0004
 8614W        W39830  22.926  18.276   9.910  0.3432  0.1979 -0.0178
 8615W        W39831  15.564  24.109   9.938 -0.2216  0.0845  0.2122
 8616W        W39832  13.137  21.619   3.110  0.1600 -0.0742 -0.3378
 8617W        W39833  16.116  16.791   8.436 -0.2607 -0.0313 -0.2345
 8618W        W39834  22.953  15.723   2.034  0.2430  0.2601  0.0720
 8619W        W39835   1.417   4.545   9.403  0.2876  0.0097  0.1531
 8620W        W39836  18.967   8.180   8.336  0.0828 -0.0267 -0.0074
 8621W        W39837  16.546  24.644  10.030 -0.1024  0.3357 -0.1070
 8622W        W39838   6.182  13.968   0.093  0.2934 -0.0742  0.2303
 8623W        W39839  14.691   8.951   8.717 -0.2483  0.0717 -0.0444
 8624W        W39840  25.208  21.007   8.771 -0.1643  0.0821 -0.1686
 8625W        W39841   0.718  18.394  10.414  0.0401  0.2362 -0.4717
 8626W        W39842   8.394  23.177   0.698  0.0818 -0.0144  0.1180
 8627W        W39843  23.316  12.728   2.313  0.1929 -0.2680  0.1344
 8628W        W39844   6.885  20.070   7.939 -0.2663  0.1689 -0.0123
 8629W        W39845  17.256  11.798   1.848 -0.0911  0.1547 -0.0629
 8630W        W39846   8.077  25.140   0.863  0.0065  0.0779 -0.1833
 8631W        W39847   2.276   7.480   1.250  0.1533 -0.1342  0.2397
 8632W        W39848  17.935   4.794   7.509  0.3468 -0.1634 -0.1043
 8633W        W39849   2.431  13.225   1.808  0.6387 -0.1621  0.1538
 8634W        W39850  25.281  19.324   3.032  0.1888 -0.3046 -0.0611
 8635W        W39851   3.441  13.938   2.109  0.0558 -0.0221  0.2272
 8636W        W39852   0.178  17.671   9.938 -0.0047  0.1900  0.0618
 8637W        W39853  19.730  27.491   9.444 -0.0562  0.1246  0.1102
 8638W        W39854  15.220   7.935   7.139  0.0222  0.1194 -0.1781
 8639W        W39855  12.743  12.184   2.778  0.0920 -0.2824 -0.0701
 8640W        W39856  18.414  16.471   7.777 -0.0129 -0.2359  0.1210
 8641W        W39857  14.913   0.769   7.781  0.2479  0.2450 -0.2568
 8642W        W39858  15.387   1.608   2.958  0.2346 -0.1071  0.2877
 8643W        W39859  10.527  15.046   1.811  0.1515 -0.3587 -0.1509
 8644W        W39860  12.672   1.405  10.529 -0.0858  0.2621  0.2817
 8645W        W39861  17.105  16.064   2.321  0.6964  0.0175 -0.0758
 8646W        W39862  14.917   0.818   2.758 -0.2007 -0.1044 -0.0630
 8647W        W39863   8.629  20.533   1.116 -0.2772  0.0311  0.0345
 8648W        W39864   8.950   8.473   2.395  0.1212  0.0739  0.3128
 8649W        W39865   3.906  15.530   9.712  0.1250  0.0679  0.0451
 8650W        W39866  23.586   9.116   2.966  0.0117  0.0084 -0.0072
 8651W        W39867  23.243  17.327   7.911  0.0040 -0.3462 -0.1203
 8652W        W39868   2.558  16.840   2.407 -0.0244 -0.0987  0.0986
 8653W        W39869  19.063  27.467   0.121  0.1790 -0.2710  0.2299
 8654W        W39870   8.090   6.287   0.518  0.2064 -0.0533  0.0241
 8655W        W39871  12.832   1.897   9.936  0.1963  0.0793  0.2162
 8656W        W39872   1.347  21.607   3.066  0.2676  0.0089 -0.1374
 8657W        W39873   2.908  20.972   9.415 -0.2654 -0.2003  0.0767
 8658W        W39874  27.543  15.349   1.964  0.0766 -0.4168  0.1116
 8659W        W39875   6.641  25.968   3.475  0.0861 -0.0907 -0.1527
 8660W        W39876  25.330  17.161   9.630 -0.3182  0.1768 -0.0884
 8661W        W39877  26.687  26.345   2.536  0.2180  0.0520  0.1273
 8662W        W39878   9.457  10.330   2.257 -0.1507 -0.3335  0.1362
 8663W        W39879  19.256  26.385   7.787  0.1154  0.0423 -0.0890
 8664W        W39880   7.734   4.228   0.485  0.0166 -0.1692 -0.1309
 8665W        W39881  24.325  26.494   0.138  0.1189  0.0979 -0.3914
 8666W        W39882  10.948   6.654   1.280 -0.1288  0.0844 -0.0317
 8667W        W39883   2.335  16.679   0.441  0.0957  0.2714  0.1630
 8668W        W39884  20.905   2.709   0.162  0.4020 -0.0202 -0.2468
 8669W        W39885  13.149   7.670   1.062 -0.0887  0.2147 -0.0318
 8670W        W39886   4.115   9.396   9.617 -0.0331  0.2006 -0.2794
 8671W        W39887   5.825  20.791   8.863  0.1162 -0.0842  0.0617
 8672W        W39888  19.609  20.598   3.437 -0.0325  0.0366  0.0547
 8673W        W39889   4.617   8.870   7.669 -0.3224  0.1924 -0.0873
 8674W        W39890  14.865  24.335   2.674 -0.2817  0.2303  0.1032
 8675W        W39891  25.693  26.410   7.595 -0.0575 -0.2501  0.0996
 8676W        W39892  10.242  24.215   9.169  0.1106  0.0643  0.0174
 8677W        W39893  26.935  16.226   0.361  0.0225 -0.1285  0.2964
 8678W        W39894  25.411   0.281   0.898  0.0076 -0.1951 -0.0430
 8679W        W39895  23.554  27.342   9.154 -0.2834  0.0822  0.5243
 8680W        W39896  22.912  12.572   3.225  0.1693  0.2090 -0.1432
 8681W        W39897  19.581   4.537   2.077  0.0192 -0.1145  0.0348
 8682W        W39898  26.456  20.202   7.340  0.1331  0.3035 -0.1377
 8683W        W39899  26.278  25.472  10.406 -0.0208 -0.1444  0.0870
 8684W        W39900  15.739   7.952   9.503  0.0666 -0.0386 -0.0443
 8685W        W39901  22.246  26.601   9.845 -0.2479  0.1813  0.2796
 8686W        W39902   1.528   3.108   9.569 -0.0093  0.0213 -0.4965
 8687W        W39903  20.864   0.131   2.878 -0.0901  0.1813 -0.0066
 8688W        W39904   3.168  15.203  10.283 -0.1754  0.1892 -0.3043
 8689W        W39905  26.861   8.711   0.586  0.1166 -0.0079  0.0688
 8690W        W39906   4.295  11.469   1.871  0.0375 -0.0400 -0.0708
 8691W        W39907  11.663   8.608   1.717 -0.0046 -0.1798 -0.1466
 8692W        W39908   9.319  17.544   9.426  0.3086  0.0592  0.0953
 8693W        W39909   0.291   8.752   9.057 -0.1654  0.2861 -0.4766
 8694W        W39910  20.268   1.204   7.353  0.2175  0.1320  0.2073
 8695W        W39911  18.355   1.660   2.516  0.1993  0.2816  0.2890
 8696W        W39912   1.030  27.198   2.699  0.0484 -0.2590  0.2163
 8697W        W39913  17.901  16.323   0.934  0.0478 -0.1560  0.0705
 8698W        W39914   6.199   6.919   0.163  0.0770  0.0917  0.1601
 8699W        W39915  17.021  24.088   9.555  0.1399  0.1880  0.0647
 8700W        W39916   0.290  25.277   0.671  0.0196 -0.0376  0.2813
 8701W        W39917   5.278  19.968   9.902  0.0590 -0.0342 -0.0600
 8702W        W39918  17.637  24.528   1.011  0.0184  0.1687  0.0322
 8703W        W39919  18.421  20.361  10.330  0.1298 -0.1503 -0.0294
 8704W        W39920  18.307   9.465   0.246  0.3390  0.0829  0.1730
 8705W        W39921  24.418  11.262   0.973  0.1819  0.0002 -0.1796
 8706W        W39922   0.451  15.840   9.675 -0.0123  0.1882 -0.2083
 8707W        W39923  19.249  26.124   1.899  0.1442 -0.0401 -0.5993
 8708W        W39924  26.993   8.542  10.130 -0.2027  0.1966 -0.0731
 8709W        W39925  17.320  23.130   1.067 -0.0227  0.1634  0.2356
 8710W        W39926   9.048   0.503   8.758 -0.0504 -0.0565  0.3159
 8711W        W39927  17.604  21.641   0.464 -0.0721  0.1528  0.1243
 8712W        W39928  20.964   0.569   9.582 -0.1702  0.1272  0.0365
 8713W        W39929  17.988  19.123   1.727 -0.2975  0.0715  0.2600
 8714W        W39930  18.540   0.396   9.219 -0.2765 -0.1730 -0.0003
 8715W        W39931  21.634  15.883   2.076 -0.2362  0.1340  0.0839
 8716W        W39932   5.003  14.821   1.346 -0.0024 -0.1240  0.0805
 8717W        W39933  16.623  21.986   1.159  0.0313  0.0711 -0.0764
 8718W        W39934  20.047   3.619   3.090  0.2528  0.0733  0.0489
 8719W        W39935  10.232  19.573   9.285  0.2702  0.0106 -0.3153
 8720W        W39936  27.018   6.018   3.189 -0.2861 -0.0809 -0.1743
 8721W        W39937   4.441  25.296   0.379 -0.3341  0.3716 -0.0967
 8722W        W39938   8.256   1.937   9.091 -0.0026 -0.1244  0.1685
 8723W        W39939   1.106   3.192   0.583  0.3983  0.0833 -0.0875
 8724W        W39940   6.712  23.101   0.644  0.2959 -0.0193  0.0278
 8725W        W39941  20.168   7.248   8.051  0.1703 -0.0902  0.1876
 8726W        W39942  23.729  22.203   9.885  0.1453  0.1501 -0.5114
 8727W        W39943   9.313   5.268   2.888  0.1191  0.0868 -0.1069
 8728W        W39944   0.300  14.914   8.705  0.2315  0.0004 -0.1387
 8729W        W39945  20.991  24.742  10.263 -0.1966  0.0465 -0.0039
 8730W        W39946  15.322  14.300   2.320  0.1802  0.0367  0.3448
 8731W        W39947  18.293   8.147   8.940 -0.1698 -0.3236 -0.0803
 8732W        W39948   3.006   0.968   0.025 -0.1250 -0.2059 -0.1528
 8733W        W39949   2.860   4.746   4.210 -0.0780  0.2037 -0.4586
 8734W        W39950  14.613  25.195   4.222  0.0703  0.1493  0.1175
 8735W        W39951   6.428  21.614   7.860  0.0131  0.3695 -0.0077
 8736W        W39952  15.834   3.580   8.057  0.0599  0.4137 -0.2396
 8737W        W39953   3.026   1.886  10.526  0.2402 -0.0984  0.0096
 8738W        W39954   4.652  21.111   0.751  0.2347  0.1794  0.1506
 8739W        W39955  16.394   9.125   1.873 -0.0044  0.2152  0.1752
 8740W        W39956  22.208  16.569   2.234  0.0698  0.3080  0.0432
 8741W        W39957   8.428  19.114   0.506 -0.0881  0.1999  0.0035
 8742W        W39958   4.524  17.014   0.315  0.0017 -0.0383 -0.0771
 8743W        W39959  19.580  19.888   0.353  0.0786 -0.0469  0.0596
 8744W        W39960   9.897  19.280   1.278 -0.0859  0.1146 -0.1636
 8745W        W39961  10.495  18.798   1.557 -0.2180  0.4449 -0.1372
 8746W        W39962   5.040   6.257   9.906  0.3027 -0.0030  0.3063
 8747W        W39963   6.794   0.217   7.876  0.2514 -0.1011 -0.1408
 8748W        W39964  18.992   7.895   1.900 -0.0227  0.1126 -0.0731
 8749W        W39965  20.947   4.588   8.121 -0.2076 -0.2680 -0.1065
 8750W        W39966  27.543   0.984  10.341  0.1399 -0.0395 -0.2220
 8751W        W39967   8.517   6.745   8.022 -0.1516 -0.2699  0.0014
 8752W        W39968  25.716  10.755   0.889  0.1787 -0.1705  0.2422
 8753W        W39969  20.986  16.548   8.207 -0.2766 -0.0245 -0.0921
 8754W        W39970  15.351  26.392   2.980 -0.0889  0.3417 -0.2304
 8755W        W39971  12.591  21.083   2.108 -0.1392  0.0080 -0.2211
 8756W        W39972   9.404   3.172   7.942 -0.2261  0.0010  0.0330
 8757W        W39973  15.223   9.971   0.694 -0.1220 -0.1424  0.0369
 8758W        W39974  15.164  22.376   8.356  0.0524 -0.0876  0.1874
 8759W        W39975  25.285   7.401   2.315  0.0972  0.5610  0.0377
 8760W        W39976  24.274  18.464   0.919 -0.0619 -0.0737  0.0487
 8761W        W39977  13.146  19.224   2.738  0.1621 -0.3722 -0.1908
 8762W        W39978  19.455  12.198   7.858  0.0608 -0.2937  0.1124
 8763W        W39979   1.707  10.328   0.907  0.0013 -0.0629 -0.1918
 8764W        W39980  16.122   7.446   0.812 -0.0952 -0.0228 -0.0985
 8765W        W39981  12.937   7.039   3.794 -0.1251 -0.1264 -0.0623
 8766W        W39982  19.155  24.033   3.516 -0.0532  0.0562  0.0393
 8767W        W39983   8.072   9.186  10.411  0.1644  0.0705  0.2235
 8768W        W39984  19.710  17.340   8.006 -0.0503  0.0492  0.0309
 8769W        W39985  20.478   2.570  10.505  0.2544 -0.0161  0.0201
 8770W        W39986  13.396  12.038   0.662  0.1595  0.0234 -0.0049
 8771W        W39987  23.790  21.632   7.770 -0.0542  0.0697  0.0954
 8772W        W39988   4.550   9.437   9.039  0.3306  0.2751  0.3638
 8773W        W39989  23.723  18.464   9.018 -0.2237  0.0187 -0.2853
 8774W        W39990  19.539  20.816   8.579 -0.1504 -0.0789  0.0067
 8775W        W39991   4.036  22.718   3.988 -0.0873  0.2870 -0.1267
 8776W        W39992   8.596  13.530  10.113  0.0748 -0.0547  0.0047
 8777W        W39993   6.140  15.869  10.433  0.1553 -0.1843 -0.0496
 8778W        W39994  15.504  23.371   8.481 -0.0718 -0.0240 -0.2238
 8779W        W39995  11.352   0.047   2.323  0.0621  0.0021  0.2163
 8780W        W39996  21.057  18.455   1.494 -0.0528  0.0865  0.1784
 8781W        W39997  11.349  12.923   3.105 -0.1307  0.1603 -0.1945
 8782W        W39998  19.113   1.094   0.561  0.3732 -0.0054  0.0252
 8783W        W39999   0.697  25.397   3.312 -0.1855 -0.2152  0.0357
 8784W        W40000  16.354   2.897   0.393 -0.2447  0.3095 -0.1371
 8785W        W40001  13.457   7.588   0.584 -0.0797 -0.1685  0.2957
 8786W        W40002   2.028   8.309   2.907  0.3808 -0.0662 -0.0709
 8787W        W40003   8.148  23.544   3.870  0.3012  0.1643  0.1382
 8788W        W40004  21.661   8.724  10.139 -0.0040  0.1242  0.0290
 8789W        W40005  23.884  18.288   8.574 -0.2108 -0.1818 -0.2498
 8790W        W40006   9.150  21.599   2.735  0.0204  0.1120  0.1021
 8791W        W40007   0.813   0.563   8.658  0.0405  0.0596  0.0262
 8792W        W40008  22.464  10.736   9.963 -0.0070 -0.0193  0.1295
 8793W        W40009   0.857  21.205   2.240  0.2170 -0.1944  0.1607
 8794W        W40010  23.657   1.230   7.934 -0.1386  0.4052  0.0980
 8795W        W40011   7.580  23.413   0.372 -0.0726  0.0598  0.0809
 8796W        W40012  19.419  10.981   3.576  0.0035 -0.1388 -0.1251
 8797W        W40013  26.236  15.872   0.609 -0.0345 -0.1856 -0.2383
 8798W        W40014   4.768  20.855   8.957  0.1351 -0.1655 -0.0669
 8799W        W40015   8.602  24.357   0.351 -0.0991 -0.1823 -0.0369
 8800W        W40016  14.184  12.154   2.229  0.0534  0.0148  0.0946
 8801W        W40017   9.827  25.569   3.383  0.0093  0.2887 -0.0556
 8802W        W40018   3.919   7.505   9.750  0.1092 -0.2207 -0.0203
 8803W        W40019  10.468   0.251   1.156  0.1473 -0.2622 -0.2193
 8804W        W40020  24.722   8.214   8.049 -0.3181  0.1606 -0.0441
 8805W        W40021  13.552   2.822   8.015  0.0468  0.0814  0.1186
 8806W        W40022  15.426   8.575   0.987 -0.0924  0.0713 -0.1791
 8807W        W40023  19.365  15.036   2.802  0.0165 -0.1553 -0.1396
 8808W        W40024   8.770   7.627   9.819 -0.1001 -0.1192  0.1380
 8809W        W40025   2.380  19.319   7.861  0.0393 -0.1061 -0.1210
 8810W        W40026  26.126  23.049   2.069  0.0873 -0.1174  0.3212
 8811W        W40027   1.664  20.293  10.314  0.0017 -0.0065  0.5598
 8812W        W40028   2.218   9.586   2.038 -0.0947 -0.2543  0.2699
 8813W        W40029  10.801  17.756   2.331  0.5309  0.1253  0.1588
 8814W        W40030   2.898  22.426   0.578  0.1500 -0.2077  0.0298
 8815W        W40031  16.439  23.140   1.697 -0.3502  0.1330  0.0172
 8816W        W40032  20.215   4.655   3.129 -0.3207 -0.0498 -0.2597
 8817W        W40033   5.275  26.955   9.481 -0.0881  0.1345 -0.0558
 8818W        W40034  18.745  14.550   1.234  0.1298  0.1261  0.2231
 8819W        W40035   8.265  14.077   2.779  0.1729 -0.1483 -0.0060
 8820W        W40036   9.395  15.210   2.666 -0.1687  0.0331 -0.0714
 8821W        W40037   2.659  21.810   4.218 -0.4113  0.1153 -0.0993
 8822W        W40038   1.647  20.975   2.311  0.0103 -0.0660  0.0520
 8823W        W40039  21.659  16.290   9.663  0.2573 -0.1048  0.1466
 8824W        W40040  13.848   0.003   2.277  0.0271  0.4480 -0.3244
 8825W        W40041  14.882  17.273   9.334 -0.0054  0.0883  0.1199
 8826W        W40042   7.750  23.159   8.860  0.0047  0.0564  0.1989
 8827W        W40043  12.990   7.357   1.355 -0.2766 -0.3430  0.0225
 8828W        W40044  10.851  17.596   8.963 -0.0257  0.2026  0.1184
 8829W        W40045  14.351   5.382   2.992 -0.0594  0.1709  0.1381
 8830W        W40046   8.493  19.527   9.782  0.2330 -0.0914  0.1699
 8831W        W40047   4.831   6.200   3.095 -0.4758  0.0259 -0.0612
 8832W        W40048  18.990  24.299   3.125  0.0813 -0.3122  0.1831
 8833W        W40049  19.805   3.114   2.999  0.2341 -0.1341 -0.1103
 8834W        W40050  23.065  14.256   9.121 -0.1926 -0.1593 -0.0735
 8835W        W40051  20.880  13.630   7.684  0.1055  0.1386 -0.3215
 8836W        W40052  27.472  13.612   7.507 -0.1871 -0.0050  0.0185
 8837W        W40053   9.384  20.100   7.831  0.0900 -0.0483 -0.1146
 8838W        W40054  15.506  16.471   9.180  0.0433 -0.0770 -0.1366
 8839W        W40055  24.485   3.823   3.168  0.0904  0.0375 -0.0703
 8840W        W40056  10.930  10.780   2.729 -0.0271 -0.1591 -0.1555
 8841W        W40057  10.514   5.595   0.023 -0.0893 -0.0398 -0.1406
 8842W        W40058  23.318  15.070  10.058  0.0240 -0.0390 -0.0411
 8843W        W40059  17.037  16.963   2.798 -0.0612 -0.0183 -0.0299
 8844W        W40060   5.413  26.947   2.171 -0.0080  0.0028  0.1270
 8845W        W40061   4.986   0.553   2.595  0.1001  0.2172 -0.1224
 8846W        W40062   0.307  19.133   2.210 -0.1251  0.1203 -0.1475
 8847W        W40063  16.867  24.387   3.063 -0.0846 -0.2693  0.0393
 8848W        W40064  10.951   4.150   1.495  0.1031  0.0781  0.1536
 8849W        W40065  21.281   2.122   0.708  0.2190 -0.1746 -0.2906
 8850W        W40066  25.327  20.324   2.945  0.3282 -0.0053 -0.0624
 8851W        W40067  12.595  23.531   1.502  0.1863 -0.1197 -0.0663
 8852W        W40068  25.088   7.845   9.527  0.1827  0.0334  0.0871
 8853W        W40069  11.706   9.241   9.038 -0.0098 -0.0700 -0.2586
 8854W        W40070   3.387   7.491   8.479  0.1179  0.3547 -0.1257
 8855W        W40071  21.996  14.227   8.044 -0.2027 -0.2839 -0.1815
 8856W        W40072  19.477   1.168   7.788  0.0806 -0.1070  0.0356
 8857W        W40073  19.535   3.055   1.402  0.3419 -0.2219 -0.2377
 8858W        W40074  25.659  27.471   9.001 -0.0828 -0.0862  0.0863
 8859W        W40075  22.938  17.483   2.188 -0.0265  0.1644  0.1682
 8860W        W40076  25.813  22.407   3.140 -0.0384  0.2903  0.4334
 8861W        W40077  25.939  26.915   3.781  0.2898 -0.0850 -0.0536
 8862W        W40078  11.728  19.816   0.667 -0.0280  0.2363 -0.0657
 8863W        W40079   2.540  23.038   1.393 -0.1677 -0.0483 -0.0166
 8864W        W40080  13.733  24.753   8.277 -0.1206  0.0963 -0.1959
 8865W        W40081  13.244  16.191   2.060  0.0773  0.2152  0.0757
 8866W        W40082  16.081   0.163  10.240 -0.0320 -0.2061 -0.1748
 8867W        W40083  21.632   0.086   2.355 -0.3505  0.2885  0.0238
 8868W        W40084  15.537  12.338   0.337 -0.0947  0.1272  0.0460
 8869W        W40085  17.269   4.816   0.302 -0.4349  0.1789  0.2664
 8870W        W40086  19.179  16.280   2.681 -0.0230 -0.0078 -0.0420
 8871W        W40087   5.770  14.212   0.964 -0.1167 -0.0238  0.0143
 8872W        W40088  23.677  16.464  10.072 -0.1564 -0.1081 -0.0663
 8873W        W40089  14.378   7.696   1.183 -0.1313 -0.1672 -0.2680
 8874W        W40090   6.771  15.938   7.239  0.0593  0.1639  0.0199
 8875W        W40091  15.462  24.880   0.438 -0.1808 -0.1225 -0.0362
 8876W        W40092  21.560  21.478  10.137 -0.1535  0.0311 -0.1979
 8877W        W40093  25.953  14.975   2.951 -0.1602 -0.0450  0.1337
 8878W        W40094  10.002   2.088   8.621 -0.0910  0.1881 -0.1146
 8879W        W40095  11.847   1.661   1.402  0.3749 -0.1247 -0.0606
 8880W        W40096  25.396  22.019   2.490 -0.0813 -0.0396 -0.2819
 8881W        W40097  26.928   3.867  10.160  0.2325  0.1890 -0.1346
 8882W        W40098  21.108  25.567   8.811  0.4265 -0.1077 -0.0524
 8883W        W40099  23.468   6.487   9.419  0.0105 -0.0261 -0.1220
 8884W        W40100  10.310   3.544   2.092  0.2439 -0.0607 -0.5192
 8885W        W40101  11.914  23.814   9.117  0.4013  0.3407 -0.1353
 8886W        W40102  10.725  12.240   8.730  0.1721 -0.2007 -0.0735
 8887W        W40103  24.203  18.418   2.417  0.0266  0.1453  0.0913
 8888W        W40104  14.459  12.766  10.253 -0.0954 -0.0987 -0.0707
 8889W        W40105   1.010  18.502   1.999  0.2490  0.1364  0.0241
 8890W        W40106  10.211   1.538   2.114 -0.1614 -0.1835 -0.2293
 8891W        W40107   1.652   4.010   8.184  0.1549  0.1184  0.0488
 8892W        W40108  20.822  23.305   3.655 -0.4160 -0.1435 -0.1703
 8893W        W40109  14.626   2.234  10.428 -0.1138 -0.1904  0.0633
 8894W        W40110  26.685   9.706   8.806 -0.1517  0.1848 -0.1744
 8895W        W40111  17.013  26.707  10.296  0.1300 -0.1410 -0.0914
 8896W        W40112   1.980   6.748   3.316 -0.1375  0.2221  0.0426
 8897W        W40113  17.765   7.162   1.860 -0.0887 -0.2026  0.3762
 8898W        W40114  13.835   5.090   2.638  0.1147  0.1731 -0.1906
 8899W        W40115   3.493  11.481  10.490 -0.1780  0.1275 -0.1043
 8900W        W40116  24.211  14.815   8.497 -0.3967  0.0528  0.1379
 8901W        W40117  10.110   0.356   8.017  0.4282  0.1187 -0.2414
 8902W        W40118  13.164   6.898   1.272  0.1830  0.0815  0.0858
 8903W        W40119   9.610  15.976   9.489 -0.1465 -0.1763 -0.2119
 8904W        W40120  27.090  23.346   2.330 -0.2533 -0.0863  0.2464
 8905W        W40121  22.016  24.475   8.379 -0.0856 -0.0983 -0.0009
 8906W        W40122  11.541  11.044   3.530 -0.5006  0.2593  0.2039
 8907W        W40123  23.864  22.101   1.027 -0.2428 -0.0024  0.2144
 8908W        W40124  20.814   4.934  10.221 -0.0744  0.1365  0.0304
 8909W        W40125  25.559  25.800   8.641  0.0762 -0.0319 -0.3940
 8910W        W40126   0.620  14.473   1.319  0.3299 -0.0464  0.0014
 8911W        W40127  21.996  12.249   2.717  0.0895 -0.0184 -0.1234
 8912W        W40128   5.904   3.466   0.773  0.0788 -0.0876 -0.0227
 8913W        W40129  23.968  24.124   0.615  0.1684 -0.0976 -0.0407
 8914W        W40130  10.245  17.140   2.361  0.0773  0.2408  0.2350
 8915W        W40131   7.587   6.688   7.742 -0.1712  0.0691  0.3629
 8916W        W40132  17.373  10.399   8.938  0.0546  0.0138 -0.0157
 8917W        W40133   7.446   5.332  10.241  0.4404 -0.0930  0.0941
 8918W        W40134  13.519  10.319  10.452  0.1422 -0.1675 -0.0016
 8919W        W40135  14.674  11.222  10.162  0.1523  0.0290  0.1931
 8920W        W40136   4.445  25.293   7.651  0.1314  0.0533 -0.1174
 8921W        W40137  18.664  20.275   8.485 -0.1286 -0.1005  0.1951
 8922W        W40138  12.953  25.104   8.135  0.0369  0.1830  0.1925
 8923W        W40139   9.186  18.442   0.960  0.0901  0.0883 -0.0496
 8924W        W40140  24.266  17.939   2.653  0.1811 -0.1673  0.1573
 8925W        W40141   8.419   2.286   1.274 -0.0825 -0.0131  0.0649
 8926W        W40142   4.232   8.122   9.470 -0.2202  0.0494 -0.0383
 8927W        W40143  15.752  18.744   8.873  0.0924  0.0202 -0.1133
 8928W        W40144  16.506  21.760   9.078  0.2365 -0.1372  0.4694
 8929W        W40145  26.624  23.064   0.880 -0.0857  0.0741  0.0250
 8930W        W40146   7.135  18.034   3.035 -0.0871 -0.2550 -0.0358
 8931W        W40147  26.076  11.425   3.279 -0.0924 -0.1146 -0.1788
 8932W        W40148  12.459  24.222   2.510  0.0144  0.2620 -0.0617
 8933W        W40149  20.377  27.137   9.928 -0.2829  0.0359 -0.1547
 8934W        W40150   7.031   6.813   2.696  0.0342 -0.0555 -0.0136
 8935W        W40151  15.894   6.694   7.958 -0.1804  0.2144 -0.0738
 8936W        W40152   0.999   4.612   0.426  0.0374 -0.1413 -0.1532
 8937W        W40153   1.103  23.083   9.823  0.1666 -0.2476  0.1938
 8938W        W40154  11.030   3.063   1.841 -0.0171 -0.2379 -0.1020
 8939W        W40155  20.626   0.079   8.089  0.1903 -0.0447  0.0600
 8940W        W40156  14.051  10.020   1.924  0.1206  0.1770 -0.1712
 8941W        W40157  11.836  22.519   8.742 -0.0728  0.0243  0.0233
 8942W        W40158  13.196  24.690   9.107 -0.2602 -0.2785  0.2977
 8943W        W40159   6.175   5.947   1.846 -0.2973  0.2813  0.0575
 8944W        W40160  17.501  20.885   0.763  0.0591 -0.1422  0.1880
 8945W        W40161   9.600   3.815   1.798  0.0760  0.2687 -0.0017
 8946W        W40162  27.085  21.019   1.057 -0.0495 -0.3142  0.0780
 8947W        W40163   4.882  22.415   0.243  0.0446  0.1922 -0.1120
 8948W        W40164  11.296  20.509   2.082 -0.0745  0.0562  0.1499
 8949W        W40165  25.656  19.742   1.820  0.0878  0.0806 -0.0767
 8950W        W40166  19.084  16.301   8.384  0.0814  0.0521 -0.2114
 8951W        W40167  12.720  11.411   1.207 -0.0955  0.0222 -0.0439
 8952W        W40168  11.442  19.539   2.010 -0.3632  0.2349 -0.1116
 8953W        W40169   0.403  20.572   1.565 -0.5800 -0.0621 -0.1042
 8954W        W40170   5.296   0.663   7.718 -0.1275  0.3187  0.4025
 8955W        W40171   2.496  12.784   3.209  0.3946 -0.1266 -0.1771
 8956W        W40172  16.037  10.510   1.845 -0.0197  0.2398 -0.0655
 8957W        W40173   1.059  14.661  10.179  0.1845 -0.3135  0.0235
 8958W        W40174  17.686  21.193   8.275 -0.0263 -0.0528  0.1807
 8959W        W40175  26.010  12.564   3.966  0.0318 -0.0253  0.1877
 8960W        W40176  12.435   3.487   3.882  0.1872  0.2586  0.1255
 8961W        W40177  17.205   4.779   0.929 -0.0447  0.3231  0.0469
 8962W        W40178  16.816  13.410  10.142  0.1871 -0.1330  0.0891
 8963W        W40179   4.773   3.063  10.504  0.0130 -0.2593  0.1260
 8964W        W40180  15.277   9.269   2.669  0.1335 -0.5176 -0.1583
 8965W        W40181  13.870  17.959   1.251 -0.1864 -0.0675  0.2765
 8966W        W40182   3.665  16.314   9.108  0.1332  0.0422  0.0488
 8967W        W40183  15.845  13.080  10.431 -0.0337 -0.0636  0.0660
 8968W        W40184  16.589  21.911   2.448  0.0739 -0.1578  0.0761
 8969W        W40185   0.004  20.342   1.362  0.0393 -0.2836 -0.0015
 8970W        W40186  16.045   9.349   3.110  0.1682  0.4459 -0.1512
 8971W        W40187   7.496  11.523  10.275 -0.1768  0.0690  0.1624
 8972W        W40188  17.920  26.055  10.036  0.1015  0.0543 -0.1705
 8973W        W40189  22.489  13.247   1.318 -0.0804 -0.0800 -0.0672
 8974W        W40190  22.237  23.496   0.774 -0.1177  0.1649 -0.0134
 8975W        W40191  21.387  26.829   9.252  0.0240 -0.1497 -0.3238
 8976W        W40192  20.087  21.526   2.531 -0.0146  0.3371  0.0182
 8977W        W40193   4.968   0.123   1.269 -0.1939 -0.0151  0.0062
 8978W        W40194   6.509  12.153   2.761  0.0615  0.1863 -0.0609
 8979W        W40195  25.209  15.901   3.326 -0.0144 -0.2225 -0.0452
 8980W        W40196  11.106   9.143   0.756 -0.2197 -0.2364 -0.3556
 8981W        W40197   8.428  18.026   7.377  0.0796  0.2870  0.0873
 8982W        W40198  25.973  12.743   2.703  0.3127  0.0004  0.0797
 8983W        W40199  22.017  17.741   1.483 -0.0565  0.0825  0.1313
 8984W        W40200   2.372  13.105  10.424  0.1499 -0.0653 -0.0680
 8985W        W40201  27.504   3.673   1.408 -0.0213 -0.0293  0.3760
 8986W        W40202   8.971  17.712   8.119  0.2302 -0.0189 -0.1708
 8987W        W40203  25.555  24.564   7.459 -0.1022  0.0683 -0.3328
 8988W        W40204  18.365   8.726   7.855 -0.1023  0.1688  0.0705
 8989W        W40205   0.447   1.629  10.220 -0.0072 -0.1932  0.2590
 8990W        W40206   9.460   1.413   0.168 -0.1371 -0.2141 -0.0342
 8991W        W40207  12.118   6.357   2.227 -0.1971 -0.2285  0.1573
 8992W        W40208   3.474  21.174   2.789 -0.1533  0.2287 -0.0675
 8993W        W40209  21.678   2.740   0.850  0.0768  0.2134  0.2840
 8994W        W40210   8.552  25.124   2.719  0.2746 -0.1012  0.4256
 8995W        W40211   1.302   3.404   7.592 -0.1742  0.0311 -0.0357
 8996W        W40212  10.602   5.157   0.914 -0.1257  0.0236  0.0890
 8997W        W40213  22.555   7.908   0.846 -0.2649  0.1059  0.1394
 8998W        W40214  15.269  18.245   8.295  0.0955 -0.4718  0.0373
 8999W        W40215  22.830  27.311   0.383 -0.4290 -0.0071 -0.0581
 9000W        W40216  27.599  14.128   0.387  0.2613 -0.3912 -0.0067
 9001W        W40217   9.990   2.995   9.195 -0.2475 -0.0434  0.2073
 9002W        W40218  22.018   4.078   9.926 -0.2066 -0.1290  0.1656
 9003W        W40219  25.206  13.106   2.547 -0.2449  0.6008 -0.0289
 9004W        W40220  22.932   0.195   8.569 -0.0026  0.0145  0.0869
 9005W        W40221  10.962  26.452   9.916 -0.0689 -0.0788 -0.2976
 9006W        W40222  26.591  17.979   9.085  0.2838  0.1506  0.0807
 9007W        W40223  17.494  14.065   7.797 -0.0893 -0.1121 -0.0505
 9008W        W40224   4.662  19.105   9.900 -0.1687  0.2203  0.1876
 9009W        W40225  21.325   4.228   3.458 -0.1138  0.2893 -0.3084
 9010W        W40226   0.898  16.128   0.571 -0.0131 -0.0077  0.1924
 9011W        W40227  15.381  21.833   0.648  0.0539 -0.0964  0.1192
 9012W        W40228   3.059   2.265   3.174 -0.1425 -0.0010  0.0876
 9013W        W40229  25.910  11.489   1.962  0.4153  0.1099 -0.0763
 9014W        W40230  12.115  16.161   8.158 -0.0858  0.1030  0.2987
 9015W        W40231   8.892  19.872   8.574  0.0936 -0.0974 -0.0966
 9016W        W40232  12.212  26.642   1.809 -0.2879  0.2228 -0.0410
 9017W        W40233   9.001  21.185   1.582  0.1353  0.2223 -0.0163
 9018W        W40234   5.962   5.749   2.281 -0.2529  0.1375 -0.0918
 9019W        W40235   2.756  21.110  10.440 -0.0683 -0.0325 -0.0046
 9020W        W40236  26.904  23.625   7.973  0.0940 -0.2799  0.0707
 9021W        W40237  26.164   5.982   1.725 -0.0309  0.1545 -0.0561
 9022W        W40238  26.067  17.973  10.118  0.2523  0.0231  0.0025
 9023W        W40239  20.818   6.867   2.049 -0.5015 -0.3179 -0.2264
 9024W        W40240  20.802  24.988   0.782 -0.1337  0.1117  0.2358
 9025W        W40241  24.651  19.438   1.071  0.0554 -0.1332 -0.1011
 9026W        W40242   1.264   7.099  10.245 -0.3303  0.0863 -0.0060
 9027W        W40243   3.698  23.268   9.278 -0.0344 -0.0102  0.3522
 9028W        W40244  11.019  12.502   9.159  0.1216  0.2466 -0.3872
 9029W        W40245  18.351  10.967   2.638 -0.0747 -0.3422  0.1806
 9030W        W40246  12.409  22.170   3.518 -0.1019 -0.1213 -0.0492
 9031W        W40247   2.059  17.889   2.489 -0.0116 -0.1316 -0.0105
 9032W        W40248   6.372   2.204   8.636  0.3349  0.0386 -0.4030
 9033W        W40249  18.098  24.449   2.625  0.1714  0.2527 -0.0719
 9034W        W40250  26.764  14.205   0.404  0.3326 -0.0712 -0.0986
 9035W        W40251   6.800   7.282   9.893 -0.0279  0.1533 -0.0454
 9036W        W40252  23.485  22.197   8.472  0.0355 -0.1332  0.2140
 9037W        W40253  14.781  24.266   3.510 -0.0308 -0.2473 -0.2306
 9038W        W40254   7.893   2.701   9.837 -0.0150  0.2165 -0.0049
 9039W        W40255  25.401  26.855   2.225  0.0642 -0.1075  0.2453
 9040W        W40256  17.629   1.869   3.866 -0.0414 -0.1044 -0.4355
 9041W        W40257  24.008  12.114   8.744 -0.0846  0.1494 -0.1085
 9042W        W40258   4.361   7.931   1.338 -0.1004  0.3600  0.2440
 9043W        W40259  10.492   4.261   9.366  0.0843 -0.0534 -0.1834
 9044W        W40260  19.014  23.884   9.983 -0.0599  0.3633 -0.3078
 9045W        W40261   0.444   3.052   9.365 -0.1172  0.3628 -0.0541
 9046W        W40262   1.877  21.556   8.743  0.4823  0.0065 -0.1126
 9047W        W40263  27.347   6.278   2.880  0.0061  0.0230 -0.1585
 9048W        W40264   1.145   7.479   3.388  0.1898  0.1547  0.3005
 9049W        W40265  18.744   1.200   3.369 -0.2886 -0.2711 -0.1647
 9050W        W40266  21.027  11.888   8.017 -0.5262  0.0398  0.0530
 9051W        W40267   7.996  13.500   8.426 -0.3639 -0.0859  0.2258
 9052W        W40268   3.600  13.728   9.412  0.0955  0.1503 -0.0901
 9053W        W40269   7.646  20.304   1.393  0.0236 -0.0415  0.1712
 9054W        W40270  15.464  18.289   9.544 -0.0962  0.1675  0.1025
 9055W        W40271   1.868  26.661   9.680 -0.0464  0.1195  0.1317
 9056W        W40272   6.937  27.026  10.002  0.2426 -0.1796 -0.0928
 9057W        W40273   7.389  18.961   0.161 -0.2065  0.5002 -0.1432
 9058W        W40274   9.396   8.147   3.928 -0.1581  0.1710 -0.0943
 9059W        W40275   5.139  19.665   2.141 -0.2569 -0.0623  0.0394
 9060W        W40276  23.945  15.709   8.918 -0.2218 -0.0171  0.1537
 9061W        W40277  25.450  25.062   2.536  0.3641 -0.1981 -0.2104
 9062W        W40278  14.764   4.293   9.087  0.0866 -0.1236 -0.1043
 9063W        W40279  11.543   6.054   3.879  0.1913  0.3277 -0.2019
 9064W        W40280  24.481   4.930   1.458  0.0455  0.2101  0.2507
 9065W        W40281  13.484  27.254   3.548  0.1158 -0.0832  0.2195
 9066W        W40282   8.854  23.212   0.889 -0.1319  0.2004 -0.1163
 9067W        W40283  10.157  14.148   8.374  0.0876  0.3462  0.0671
 9068W        W40284   1.492  19.675   0.105 -0.1297  0.1421 -0.0288
 9069W        W40285  14.412   4.912   3.244 -0.0174  0.4333 -0.0499
 9070W        W40286   8.116  26.462   9.318  0.0515  0.0370 -0.0818
 9071W        W40287   6.043  15.461   2.178  0.0106  0.0774  0.0657
 9072W        W40288  25.208   4.844   3.308  0.1062 -0.1121 -0.0615
 9073W        W40289  27.513  11.761   0.569 -0.1122  0.0481 -0.0363
 9074W        W40290  23.453   2.456  10.253  0.0711 -0.0189 -0.0396
 9075W        W40291  17.200  13.534   1.438 -0.0718 -0.0467  0.0770
 9076W        W40292  26.163   1.188   0.262 -0.1414  0.1061  0.2269
 9077W        W40293  20.088  19.106   2.778  0.0278 -0.3622  0.1516
 9078W        W40294  15.457  19.342   2.625  0.0065  0.4642 -0.3053
 9079W        W40295  10.126   4.349   1.367 -0.1410  0.2138 -0.1409
 9080W        W40296  14.481  26.120   1.531  0.0303  0.1410 -0.2595
 9081W        W40297  11.573  15.679   8.751 -0.4655 -0.0340  0.4099
 9082W        W40298   7.165  18.031   2.182  0.1252 -0.1554 -0.0325
 9083W        W40299  17.317  27.607   7.964 -0.1595 -0.1414  0.2306
 9084W        W40300  19.939  17.195   8.780 -0.0104  0.1456 -0.1059
 9085W        W40301  16.636  18.274   2.886  0.4333  0.0465 -0.2978
 9086W        W40302   9.698  14.744   8.475 -0.0399 -0.1139 -0.1543
 9087W        W40303   1.745  23.962   9.239 -0.1340 -0.1410  0.2393
 9088W        W40304  18.352   7.307   7.906  0.3692  0.0296 -0.1798
 9089W        W40305   2.900   6.187   9.518  0.2472  0.0112  0.2280
 9090W        W40306  25.371  23.834   1.880  0.0572  0.1113 -0.2897
 9091W        W40307  19.612  11.537  10.367 -0.2398 -0.1226  0.4658
 9092W        W40308  21.117  26.978  10.496 -0.1841  0.1171 -0.0091
 9093W        W40309   4.314   0.652   1.912 -0.1934  0.2147  0.4329
 9094W        W40310   0.646  27.570   0.942 -0.0594  0.2805 -0.1070
 9095W        W40311  14.009  14.549   9.849 -0.0890  0.2355 -0.1319
 9096W        W40312   8.968  23.673   9.404  0.1371  0.0969  0.5028
 9097W        W40313   6.365   1.302   0.073 -0.3228  0.1341  0.5002
 9098W        W40314  21.415  17.020  10.535 -0.1282 -0.0181 -0.1136
 9099W        W40315   8.793  27.327   2.381 -0.3617  0.0376 -0.3262
 9100W        W40316   9.040   1.807   9.935  0.0745  0.1393  0.1088
 9101W        W40317  17.937  19.876   1.030 -0.1814  0.0034 -0.1012
 9102W        W40318   7.344  25.872   7.671  0.4456 -0.1400 -0.0709
 9103W        W40319  15.070   4.508  10.189  0.2336 -0.0673  0.1359
 9104W        W40320  19.828   5.326   7.923 -0.1731 -0.1613 -0.0772
 9105W        W40321  27.209  12.673  10.296  0.2768  0.1874 -0.0399
 9106W        W40322   7.115  14.648   8.303 -0.0613  0.0067  0.2009
 9107W        W40323   6.643  14.459   9.460 -0.0699  0.0306 -0.0837
 9108W        W40324  23.091   8.926   2.911  0.1846 -0.0727  0.0826
 9109W        W40325   3.150  23.723   3.415 -0.0514  0.1693  0.0593
 9110W        W40326  16.994  16.631   1.521 -0.2129  0.1790 -0.1650
 9111W        W40327  26.508  14.540   0.667  0.2726  0.1113  0.0508
 9112W        W40328  16.763  15.567   7.457  0.1481 -0.5032  0.0569
 9113W        W40329   7.889  11.200   9.521  0.1196 -0.1538 -0.1439
 9114W        W40330  24.195  25.209   2.026  0.1749  0.0503 -0.0715
 9115W        W40331  15.766  26.525   2.244 -0.1398 -0.1600  0.0334
 9116W        W40332   4.706   0.702   1.248 -0.1704  0.0593 -0.3380
 9117W        W40333  14.617   4.834   4.160  0.1307  0.0648  0.2243
 9118W        W40334   4.292   9.208   8.681  0.3304 -0.0490 -0.3394
 9119W        W40335   7.650  16.092   0.497  0.2207  0.0364 -0.0445
 9120W        W40336  13.278  13.634  10.117  0.2128  0.0691  0.2103
 9121W        W40337   2.048  11.798   2.001  0.0540  0.0486  0.1031
 9122W        W40338  19.697  12.645   6.931  0.2105  0.0792 -0.1350
 9123W        W40339  16.996  13.987   1.643 -0.2132 -0.1150 -0.0423
 9124W        W40340   3.797  27.145   3.391 -0.0106 -0.3445  0.0864
 9125W        W40341  14.973  15.894   0.760  0.3862  0.2883  0.0809
 9126W        W40342  12.072   7.434   3.148 -0.1175 -0.0945 -0.0838
 9127W        W40343  18.596  26.676   2.325  0.0942  0.1611  0.1194
 9128W        W40344  18.233  24.554   3.131 -0.0036 -0.0822 -0.0460
 9129W        W40345  17.445  21.490   8.631  0.3934  0.0959 -0.1877
 9130W        W40346  19.168  10.928   3.140  0.3576  0.0465  0.0232
 9131W        W40347  11.827  18.061   1.402 -0.1253 -0.1557 -0.1621
 9132W        W40348   2.919  26.186   1.172  0.0917  0.0353 -0.1606
 9133W        W40349  22.730  24.112   7.938  0.1106 -0.0478  0.0510
 9134W        W40350   8.764  19.214   8.360 -0.1058  0.0393  0.0660
 9135W        W40351   6.998  24.683   8.165  0.3131  0.2344 -0.2124
 9136W        W40352   8.666  10.580  10.499  0.0449  0.2309  0.3166
 9137W        W40353   5.275   6.827   0.687  0.0638 -0.0754  0.2722
 9138W        W40354  19.754  14.827   0.248 -0.1068 -0.1905  0.0330
 9139W        W40355  18.166   9.033   9.477 -0.1432 -0.2868  0.0470
 9140W        W40356   5.123  27.327   9.764 -0.2451  0.1381 -0.0858
 9141W        W40357  14.303  12.398   9.962 -0.0885  0.0430  0.1576
 9142W        W40358   7.846   5.252   7.608 -0.1389  0.0512  0.1557
 9143W        W40359  12.785  18.108   1.417 -0.3125 -0.1865 -0.2808
 9144W        W40360   7.071  19.799   2.586 -0.2798 -0.2561  0.0796
 9145W        W40361   0.252   4.260   1.798 -0.2559 -0.0104 -0.1329
 9146W        W40362   3.535  13.195   8.141  0.1261  0.0251  0.1444
 9147W        W40363  20.315   9.663   9.413 -0.0525 -0.0246 -0.0999
 9148W        W40364  25.972   9.287   9.560 -0.3443 -0.2970  0.0269
 9149W        W40365  24.424  22.616   2.953 -0.0501 -0.1622 -0.4176
 9150W        W40366   6.527   2.378   0.103  0.2689 -0.2069 -0.0656
 9151W        W40367   3.383  25.245   0.827 -0.1999  0.1201  0.3413
 9152W        W40368  16.995  12.283   8.941 -0.0717 -0.0065 -0.4098
 9153W        W40369  12.255   9.452   3.717 -0.0878  0.4603 -0.0840
 9154W        W40370  13.522   8.458   2.970 -0.2779  0.0906 -0.1454
 9155W        W40371   9.343   8.756   2.732 -0.2292  0.1150  0.0599
 9156W        W40372   3.807  25.277   2.234  0.0088  0.3655  0.0080
 9157W        W40373  25.749  17.963   9.708  0.3001  0.0632  0.0265
 9158W        W40374  26.321  24.791   0.786  0.0027 -0.1215 -0.1402
 9159W        W40375  15.973  12.050   1.650  0.0850 -0.1467  0.0388
 9160W        W40376  26.158  16.062   2.561  0.0815 -0.2304  0.1518
 9161W        W40377  26.482  14.997   9.776 -0.0972 -0.2075 -0.0285
 9162W        W40378   5.514  24.626   1.290  0.0744 -0.3790 -0.0301
 9163W        W40379   0.694   9.719   3.644 -0.2404 -0.2104 -0.0925
 9164W        W40380   5.941   4.838   8.079  0.2890  0.2076 -0.1179
 9165W        W40381  19.155  11.133   2.060 -0.2644 -0.1289  0.0245
 9166W        W40382   9.818  25.314  10.044 -0.1303  0.1327  0.1477
 9167W        W40383   4.726  26.825   2.149  0.0439 -0.0929  0.2307
 9168W        W40384   0.253  13.718   8.786  0.0924  0.1695  0.1132
 9169W        W40385   4.254  14.292   1.375 -0.2494 -0.2809  0.0496
 9170W        W40386   0.182   7.461   3.329 -0.0695  0.0200 -0.1767
 9171W        W40387   8.488   8.057   0.445 -0.0126  0.4036  0.0165
 9172W        W40388   2.339  15.821   1.289  0.0430  0.0623  0.1934
 9173W        W40389  27.246  24.273   8.823  0.0509 -0.1604 -0.0507
 9174W        W40390  21.544  26.052   9.298  0.0952  0.0751  0.1796
 9175W        W40391  22.567   8.102   7.392  0.1237  0.1623 -0.1416
 9176W        W40392  26.308  21.618   2.689  0.1045  0.0928 -0.1856
 9177W        W40393  26.131  19.256   3.806  0.4863 -0.2252 -0.1087
 9178W        W40394  20.551   4.459   7.829  0.1241  0.1402 -0.0983
 9179W        W40395  24.744  20.831  10.426 -0.1127 -0.0652 -0.2674
 9180W        W40396  27.019   7.032   1.882  0.1452 -0.1675  0.0931
 9181W        W40397   0.294  10.726   2.276 -0.1682  0.2476 -0.2108
 9182W        W40398   2.697  16.977   8.399 -0.1145 -0.5056  0.1680
 9183W        W40399   3.734  25.536   3.043  0.4213  0.2390 -0.0398
 9184W        W40400   9.472   5.152   2.405 -0.1537  0.2935  0.0073
 9185W        W40401  11.141   8.565   3.798  0.1760 -0.1303 -0.1065
 9186W        W40402   4.236   3.081   2.918  0.1204 -0.0347 -0.2149
 9187W        W40403  10.052   0.529   1.494 -0.2896  0.2688  0.1577
 9188W        W40404   7.753   4.495  10.365  0.1712  0.1316 -0.0499
 9189W        W40405   0.654  12.402   8.073 -0.1075  0.1247  0.0217
 9190W        W40406   8.440  11.471   8.435 -0.2724  0.2319  0.1744
 9191W        W40407  12.749   3.190   0.701  0.0870 -0.3526  0.1232
 9192W        W40408  23.029  13.654   0.533  0.0085  0.0526 -0.0733
 9193W        W40409   1.816   2.845   0.100 -0.0969 -0.0840 -0.1848
 9194W        W40410   9.120  22.442   9.107  0.0255 -0.0304 -0.0864
 9195W        W40411   7.925  27.586   2.535 -0.2862  0.0660  0.0587
 9196W        W40412   3.112   5.371   2.489  0.2488  0.1111 -0.1584
 9197W        W40413  25.434  15.905   0.073 -0.3702  0.3974  0.1043
 9198W        W40414  17.925  21.675  10.239  0.1589  0.0726 -0.2336
 9199W        W40415   9.124  24.182  10.072  0.0797 -0.1504 -0.0349
 9200W        W40416  16.774  16.795   7.632 -0.0340  0.0453 -0.2399
 9201W        W40417  13.999   7.268   1.278  0.3718  0.1786  0.0730
 9202W        W40418   8.866  21.594   9.338  0.0192  0.2734  0.1498
 9203W        W40419   7.171   9.501   0.070 -0.0383 -0.1358 -0.0944
 9204W        W40420   3.753  20.567   0.062 -0.1871 -0.0640  0.2850
 9205W        W40421  19.242  17.519  10.374 -0.1193  0.2857 -0.0899
 9206W        W40422  24.718  24.394   2.084 -0.0210 -0.0554  0.0593
 9207W        W40423   6.095   2.253   0.987  0.1119  0.2079 -0.5201
 9208W        W40424   7.402  10.595   3.459 -0.0120  0.4247 -0.0701
 9209W        W40425  24.623  10.826  10.535  0.0901 -0.1554 -0.1383
 9210W        W40426  22.937   3.282   0.245  0.0906  0.1396  0.0602
 9211W        W40427  15.525   7.553   8.208 -0.1646 -0.0581 -0.2025
 9212W        W40428  18.275   7.294   1.660 -0.1168 -0.0995 -0.0120
 9213W        W40429  18.906  26.460   0.328  0.0561  0.1071  0.4674
 9214W        W40430   3.583   4.588   7.986  0.0623  0.0009  0.1618
 9215W        W40431  17.607  24.760   1.591  0.1110  0.1153  0.1150
 9216W        W40432   1.662   4.056   8.701  0.2508 -0.2606  0.2179
 9217W        W40433   8.804  13.457   0.406 -0.1838  0.2132 -0.2198
 9218W        W40434   9.783  11.853   9.587  0.3669  0.2263 -0.0795
 9219W        W40435   6.872   2.428   9.845  0.0332  0.0293 -0.0750
 9220W        W40436  11.771  10.358  10.163 -0.1966 -0.2208 -0.0097
 9221W        W40437   5.187   1.533   2.058  0.0532 -0.2117 -0.0792
 9222W        W40438  18.325  13.257   9.870 -0.1625  0.1812 -0.0355
 9223W        W40439  12.168   8.670   7.916 -0.1510 -0.0079  0.0601
 9224W        W40440  12.298  27.618  10.220 -0.2240  0.0463 -0.0278
 9225W        W40441  11.618  12.521   9.294 -0.0293  0.2577 -0.1296
 9226W        W40442   5.035  26.700  10.373 -0.0940  0.0719 -0.0017
 9227W        W40443  14.391   8.900   1.460 -0.1229 -0.0336 -0.2159
 9228W        W40444  12.537   4.028   0.750 -0.3940  0.1265  0.2475
 9229W        W40445  27.321  14.731  10.282  0.0467 -0.0663 -0.4464
 9230W        W40446  24.478  11.787   9.668 -0.3852 -0.1215  0.1484
 9231W        W40447  20.492   3.085   3.095 -0.0562  0.1210  0.1731
 9232W        W40448  27.116   2.628  10.366 -0.0993 -0.0830  0.0023
 9233W        W40449   6.044  24.453   0.217  0.2983  0.0554 -0.1513
 9234W        W40450  24.367   9.928   1.332 -0.2187  0.1987  0.0745
 9235W        W40451   2.546   2.526   8.349  0.0203 -0.1721  0.1253
 9236W        W40452   4.939  15.930   0.941 -0.2489  0.0286 -0.2637
 9237W        W40453  26.137  16.596   7.581 -0.0148 -0.3195 -0.0324
 9238W        W40454  16.421   5.835   9.745  0.1110  0.0005  0.1355
 9239W        W40455   1.553  22.011   3.368  0.1358  0.2548 -0.2166
 9240W        W40456  21.240   5.823   8.318 -0.2317  0.1819  0.3515
 9241W        W40457  23.463  12.238   9.936  0.1823 -0.2464  0.0864
 9242W        W40458   8.604  13.654   3.098  0.0088 -0.0467  0.0916
 9243W        W40459   0.359  12.770   0.437  0.2430 -0.2617  0.0192
 9244W        W40460  22.048   5.053   3.173  0.0505  0.1574 -0.0885
 9245W        W40461  17.005  22.345   8.300 -0.0223 -0.1353  0.3365
 9246W        W40462   8.713   5.130   3.472 -0.1059 -0.3059 -0.0714
 9247W        W40463  10.755  27.082   8.098 -0.0407 -0.0011 -0.1506
 9248W        W40464   0.228  23.432   9.090 -0.0580  0.1513 -0.1790
 9249W        W40465   0.772   4.887   3.380  0.1841  0.0404 -0.3970
 9250W        W40466  18.533  23.268   1.557  0.1213  0.1468 -0.2818
 9251W        W40467  24.143  16.636   3.000  0.0314 -0.0073  0.3804
 9252W        W40468   9.611  20.355   1.950  0.2570 -0.0049 -0.1109
 9253W        W40469   3.908  13.395  10.294  0.1031  0.1822  0.0602
 9254W        W40470   6.505   8.617   2.965 -0.3055 -0.1522 -0.4525
 9255W        W40471   2.696   7.559   8.791 -0.0990  0.0783  0.1072
 9256W        W40472   6.508  14.214   1.835 -0.1102 -0.0379 -0.1299
 9257W        W40473   5.539   1.924   3.497  0.0881 -0.0882  0.2746
 9258W        W40474   0.916  22.848  10.197 -0.0019 -0.1882  0.1764
 9259W        W40475  23.015  27.618   7.927  0.0295 -0.0198  0.1697
 9260W        W40476   8.709   7.968   0.005  0.1689  0.0490 -0.0872
 9261W        W40477   6.483   7.176   1.093 -0.0688  0.0478 -0.1328
 9262W        W40478   2.379  22.931   3.154 -0.0842 -0.0143 -0.1450
 9263W        W40479  25.104  21.030   8.260 -0.1760 -0.0967  0.1129
 9264W        W40480   2.287  22.776   1.085  0.1805 -0.0750 -0.2509
 9265W        W40481  15.839   6.996   2.313 -0.0266 -0.0732 -0.0345
 9266W        W40482  22.786  26.731   1.237 -0.3484 -0.0162 -0.1951
 9267W        W40483   2.651  16.722   7.571 -0.4812 -0.0828 -0.2244
 9268W        W40484  21.392   4.360   7.944  0.0413 -0.2575 -0.0813
 9269W        W40485  27.287   5.613   3.168  0.2057  0.0477  0.1661
 9270W        W40486  26.154  20.676   9.981 -0.1352 -0.1830 -0.1118
 9271W        W40487  18.081  22.989   3.125  0.0043  0.4444  0.0953
 9272W        W40488  13.836  14.872   9.542  0.1676 -0.0696  0.1124
 9273W        W40489  19.636   1.069   3.098 -0.0514 -0.5206 -0.1795
 9274W        W40490   7.974  26.769   3.061  0.1442 -0.0438  0.0702
 9275W        W40491  24.489  17.545   2.480 -0.0744  0.0130  0.0806
 9276W        W40492   2.348  22.894   8.881  0.2190 -0.1875  0.1897
 9277W        W40493  24.793  10.429   3.548  0.2100 -0.3800 -0.0493
 9278W        W40494  25.232  22.095  10.160  0.1064 -0.0833 -0.0660
 9279W        W40495  23.440  22.634   9.572 -0.2272 -0.1420  0.1425
 9280W        W40496  20.195  19.811  10.072 -0.0989 -0.0618 -0.0099
 9281W        W40497   6.409   9.012   0.692 -0.0881  0.2374 -0.1598
 9282W        W40498   0.285   1.491   0.122 -0.2059  0.1902  0.2734
 9283W        W40499   1.422  11.484   2.096 -0.2272  0.2369 -0.0096
 9284W        W40500  22.473   8.605   9.863 -0.0420 -0.0531 -0.0849
 9285W        W40501  26.175   6.860   2.054 -0.1165 -0.3144 -0.0245
 9286W        W40502  12.063  27.148   3.245  0.1074  0.0360  0.1078
 9287W        W40503  22.976  24.795   7.559  0.0682 -0.0057  0.1079
 9288W        W40504  20.789   4.640   8.989 -0.0842  0.3515  0.1039
 9289W        W40505  21.293   7.108   2.252  0.2958  0.0338  0.0876
 9290W        W40506   2.432  26.687   8.883 -0.0787  0.0763 -0.3611
 9291W        W40507  16.671  20.818   2.139 -0.4142  0.2117  0.2093
 9292W        W40508   4.042  18.691  10.277 -0.1582  0.1310  0.1422
 9293W        W40509  24.944   4.443   9.541 -0.1365  0.3415 -0.3224
 9294W        W40510  21.348  19.606   8.432  0.0418  0.1546  0.1890
 9295W        W40511  15.778  19.957   2.066  0.4584 -0.2932  0.0509
 9296W        W40512  11.963  25.913   1.317 -0.0079  0.0990 -0.0284
 9297W        W40513   2.677   4.125   2.058  0.0684 -0.0904  0.2087
 9298W        W40514   7.570  11.649   1.821 -0.0493 -0.2654  0.2108
 9299W        W40515  18.517  27.587   7.501  0.0497  0.2840  0.1048
 9300W        W40516   4.038  17.811  10.060 -0.2399  0.1103  0.0425
 9301W        W40517   0.651  23.365   1.210  0.0949 -0.0678 -0.2695
 9302W        W40518  25.977   5.094   0.417  0.0894 -0.1854  0.1065
 9303W        W40519  15.238  27.504   9.418  0.2134  0.1619  0.3879
 9304W        W40520  17.224   4.542   2.212  0.1618 -0.0761 -0.0169
 9305W        W40521   0.082   7.072   2.328  0.1321 -0.0351 -0.1054
 9306W        W40522  22.220  15.729  10.040 -0.0226 -0.0092  0.0351
 9307W        W40523  20.276   0.191   8.994 -0.0836  0.1399  0.1143
 9308W        W40524   4.977   3.068   0.510  0.3229  0.0421 -0.1010
 9309W        W40525  12.310  16.857   1.762  0.0466 -0.3411 -0.0185
 9310W        W40526  26.175  15.202   3.345  0.0019 -0.0933 -0.1146
 9311W        W40527   0.263  16.689   0.443 -0.0412 -0.1647  0.2729
 9312W        W40528   0.602  15.750   0.772 -0.2478  0.1217 -0.0113
 9313W        W40529  27.340  23.912  10.049 -0.1793  0.0140  0.0273
 9314W        W40530  23.052  11.951   0.982  0.1024  0.4237 -0.2238
 9315W        W40531   3.988  22.513   0.506 -0.0450 -0.0061  0.1301
 9316W        W40532   9.754  18.784   7.435  0.0691 -0.0242 -0.4901
 9317W        W40533  25.597  21.892   1.849  0.2115 -0.0287 -0.0242
 9318W        W40534   9.601  15.857   1.820  0.0442 -0.2187  0.0746
 9319W        W40535  18.841  10.155   0.999  0.0681  0.0934 -0.0482
 9320W        W40536   2.886  20.221  10.476  0.0787 -0.0224  0.2260
 9321W        W40537   6.452   1.418   8.487  0.3350 -0.0623  0.2022
 9322W        W40538  23.518  17.744   7.916  0.0244 -0.0780  0.0994
 9323W        W40539   2.645   7.565   9.582  0.0742 -0.1131 -0.4129
 9324W        W40540   2.419  18.715   9.118  0.1017  0.0396  0.0378
 9325W        W40541   8.829   3.971   2.587 -0.0919 -0.0192 -0.2255
 9326W        W40542  19.279  22.258   9.975 -0.1419  0.0694 -0.1963
 9327W        W40543  19.203   7.397   2.779 -0.1697  0.0928 -0.1184
 9328W        W40544   9.276  23.932   9.691 -0.0698  0.2508  0.0406
 9329W        W40545  11.733  22.931   8.495  0.0061  0.2075 -0.1747
 9330W        W40546  18.358  15.310   9.791 -0.1145 -0.0681  0.0839
 9331W        W40547  23.193   5.554   0.088 -0.0482 -0.0835 -0.3931
 9332W        W40548  22.374  21.472   8.946 -0.2286  0.0821 -0.0280
 9333W        W40549   7.084  27.526   8.715  0.0254 -0.1499  0.1487
 9334W        W40550   8.682  18.576   1.902 -0.1908 -0.0415 -0.0267
 9335W        W40551  18.506  15.213   0.150  0.0257  0.0319  0.2588
 9336W        W40552  22.638  23.593   1.627  0.1422 -0.0562  0.1587
 9337W        W40553  15.305  15.059   8.176 -0.2483 -0.1217  0.2353
 9338W        W40554  18.153   6.994   8.922 -0.1502 -0.3900 -0.0535
 9339W        W40555  22.908   1.968   8.529  0.2235  0.1133 -0.2349
 9340W        W40556  21.986  18.334   0.682  0.2797  0.0311  0.2826
 9341W        W40557  22.417   5.587   2.017 -0.1026 -0.0939 -0.1112
 9342W        W40558  22.920   4.380   9.966 -0.4596 -0.0316 -0.2026
 9343W        W40559   1.649   2.319   7.922  0.1400  0.2322 -0.0779
 9344W        W40560  22.838  14.041   3.357 -0.2933  0.0155 -0.0827
 9345W        W40561   0.437   8.461   0.413 -0.1141  0.0928  0.4330
 9346W        W40562   8.515  24.987   0.691  0.0313 -0.1953 -0.3226
 9347W        W40563  18.640   7.399   0.776  0.0030  0.0794 -0.2078
 9348W        W40564   0.805   1.096   0.604 -0.2080  0.0131  0.2547
 9349W        W40565  12.873   4.039   2.395 -0.0885  0.3526 -0.1361
 9350W        W40566   4.247   4.082   9.870 -0.0553 -0.1247 -0.1711
 9351W        W40567   9.265  16.121   9.088 -0.0586  0.2480 -0.0500
 9352W        W40568  19.505   6.249   9.466  0.1903 -0.0018 -0.2072
 9353W        W40569  13.489   0.350   2.229  0.1274 -0.2099 -0.2253
 9354W        W40570  20.985   3.812   3.369 -0.4929  0.0640 -0.0417
 9355W        W40571   6.358   2.722   1.008  0.0377 -0.1995 -0.0307
 9356W        W40572   5.734   2.530   9.190  0.1075  0.0513  0.1377
 9357W        W40573  15.305  21.334   9.482  0.0344 -0.0062 -0.1162
 9358W        W40574  20.282   6.374   2.140 -0.0790 -0.0818  0.1645
 9359W        W40575  25.421  13.427  10.147  0.1617  0.1070 -0.0001
 9360W        W40576  17.886   2.632   8.071  0.4001  0.1380 -0.1159
 9361W        W40577   4.712   5.501   1.817 -0.1487  0.0710  0.2537
 9362W        W40578  23.305  15.834   1.244  0.1227 -0.1398 -0.1567
 9363W        W40579   9.261  18.346   1.847  0.0858 -0.1594 -0.3086
 9364W        W40580   2.249  14.219   9.594  0.1419 -0.3179  0.0413
 9365W        W40581  14.928  21.752   7.858  0.3370 -0.2574  0.2442
 9366W        W40582   7.922   7.905   1.268 -0.0430 -0.2960  0.0875
 9367W        W40583  23.629   3.745  10.370 -0.0073  0.0805  0.3985
 9368W        W40584   7.144  10.503   0.237  0.0063 -0.3200  0.2365
 9369W        W40585  22.183  25.219   1.822 -0.1357 -0.1006 -0.1911
 9370W        W40586  22.179  14.763   7.423  0.0857  0.0944 -0.2330
 9371W        W40587   5.911  26.224   0.875 -0.2268  0.0335 -0.1753
 9372W        W40588  10.895   1.987   1.595 -0.2321 -0.0252  0.2480
 9373W        W40589  14.497   6.333   0.673 -0.1583 -0.2460 -0.0244
 9374W        W40590  24.016  15.654   9.511  0.1554 -0.3458 -0.1417
 9375W        W40591  15.942  17.851   2.438  0.3251 -0.1501 -0.3404
 9376W        W40592  12.075  18.472   0.404 -0.1906 -0.2415 -0.2911
 9377W        W40593  18.311  19.283   4.198 -0.2180  0.0888  0.2713
 9378W        W40594  12.741  12.465   9.725 -0.1402 -0.4478  0.1445
 9379W        W40595   0.119  23.463   0.167  0.2784 -0.2431 -0.0361
 9380W        W40596  23.522  18.900   9.304  0.1709 -0.0005  0.0592
 9381W        W40597   5.803  15.562  10.175 -0.4069  0.1450  0.0669
 9382W        W40598  20.162   7.485   1.291 -0.1995  0.1363  0.0472
 9383W        W40599  20.465  12.881   3.532  0.1173  0.0809  0.3475
 9384W        W40600  15.526   8.864   7.575  0.0632  0.0342 -0.0348
 9385W        W40601  15.800   1.449   2.002 -0.1351 -0.2281 -0.1450
 9386W        W40602  11.140  20.323   7.699 -0.4137  0.2996 -0.2383
 9387W        W40603   9.875  22.424   9.725 -0.0403  0.0043  0.0716
 9388W        W40604  14.244   3.386   4.031  0.1095 -0.2857  0.0632
 9389W        W40605  17.444   5.888   9.787 -0.1468  0.2825  0.2535
 9390W        W40606  26.934   4.991   0.433  0.0097 -0.1378  0.4019
 9391W        W40607  11.618  16.941   2.348 -0.1109  0.2299 -0.1005
 9392W        W40608  13.780   0.761   4.056  0.0261 -0.2744  0.0620
 9393W        W40609  13.979  20.689   9.448 -0.0846 -0.2346 -0.1974
 9394W        W40610   4.599   5.642   1.043  0.0756  0.1664 -0.1372
 9395W        W40611  11.724   4.260   1.968  0.3670  0.3361 -0.0376
 9396W        W40612   6.710   1.349   1.245 -0.0470 -0.1348 -0.1543
 9397W        W40613   1.978  21.569   0.934 -0.0317  0.3588 -0.1873
 9398W        W40614  18.180  26.839   1.054  0.2817  0.0864 -0.0208
 9399W        W40615  24.019  21.220   7.983  0.0006  0.3517 -0.0320
 9400W        W40616  18.264  16.282   9.500 -0.0499 -0.0512  0.3711
 9401W        W40617   0.959  17.349   1.459 -0.1420 -0.0416  0.1601
 9402W        W40618  26.368  15.422   1.940 -0.0526 -0.1113 -0.0527
 9403W        W40619  24.605  16.172   1.009 -0.0145 -0.0590  0.0002
 9404W        W40620  21.531   6.660   2.242 -0.0180  0.2756 -0.0610
 9405W        W40621  20.636  21.989   1.871 -0.0171  0.1422 -0.3611
 9406W        W40622  16.772   4.958   0.406  0.0127 -0.0935  0.0555
 9407W        W40623  17.722   4.969   0.979 -0.0100 -0.1592  0.0390
 9408W        W40624  25.619  22.941  10.413 -0.2132  0.0896  0.1814
 9409W        W40625   9.841   1.266   0.910  0.0322 -0.1486  0.4203
 9410W        W40626  19.700  24.432   2.031  0.0470 -0.2365  0.0685
 9411W        W40627  11.713  13.728  10.248 -0.2557 -0.3485  0.0893
 9412W        W40628  14.535  18.183   1.837  0.1673  0.0826  0.0424
 9413W        W40629   3.333  20.676   2.663  0.0320  0.3139 -0.1813
 9414W        W40630  25.405   9.594   1.083  0.2613  0.1381 -0.2969
 9415W        W40631   1.892  25.327  10.139 -0.0656 -0.1489 -0.0872
 9416W        W40632   9.787  18.159  10.334 -0.0526 -0.1877  0.2741
 9417W        W40633  15.051   6.450   0.651  0.0089 -0.2752 -0.0953
 9418W        W40634  19.655  10.501   7.689  0.3130 -0.1007 -0.1459
 9419W        W40635  21.895   4.473   7.628 -0.1224  0.0027 -0.2401
 9420W        W40636  20.752  18.404   8.051  0.1133  0.2177 -0.1830
 9421W        W40637  25.847  15.817   9.784  0.2610  0.3584  0.2516
 9422W        W40638   2.162  18.459   1.388 -0.1475  0.2289 -0.0733
 9423W        W40639   1.418  23.897   2.454  0.0108  0.1478  0.2045
 9424W        W40640  22.807  16.750   7.614  0.0145  0.2519 -0.2224
 9425W        W40641   0.807  12.607   0.774 -0.0493 -0.0608 -0.2396
 9426W        W40642  18.457  20.958  10.233 -0.0674  0.0392 -0.2266
 9427W        W40643   4.261   4.641  10.157  0.0234 -0.0906  0.0160
 9428W        W40644  27.082   5.158   1.060 -0.2801 -0.0463 -0.1504
 9429W        W40645  20.580  25.748   0.773 -0.0076 -0.0123 -0.2730
 9430W        W40646  11.462  27.370   8.070 -0.1171 -0.0770 -0.0357
 9431W        W40647  15.427  18.713   8.392  0.0419 -0.0094 -0.1339
 9432W        W40648   9.693  25.017   2.283  0.0842 -0.0956  0.1362
 9433W        W40649   8.634  14.156   8.821 -0.0890  0.0368  0.0829
 9434W        W40650  21.130  10.096   2.580  0.1160  0.4150 -0.0965
 9435W        W40651   8.743  10.609   8.027  0.2930 -0.4172 -0.1461
 9436W        W40652  16.933   9.229   0.920  0.2545  0.1199  0.3217
 9437W        W40653  24.001   5.480   0.473  0.3669 -0.4226 -0.3386
 9438W        W40654  18.672   6.477   1.697  0.1887  0.2599  0.1030
 9439W        W40655  14.505  22.197   9.747 -0.0504 -0.4414 -0.2352
 9440W        W40656  19.582  22.911   2.287  0.1354  0.1175 -0.4009
 9441W        W40657  11.955  19.889   3.276 -0.3727  0.0986  0.3496
 9442W        W40658   2.230   5.306   2.185 -0.2018  0.0346 -0.0053
 9443W        W40659  11.461  25.518   3.697 -0.2026 -0.1423  0.0081
 9444W        W40660  24.768   3.816  10.378  0.3904  0.1646 -0.1056
 9445W        W40661  16.321   8.121   7.730  0.2758  0.2628  0.4832
 9446W        W40662  16.508  14.480   8.942 -0.0573  0.2156 -0.2533
 9447W        W40663  21.416   1.300   9.609 -0.1287  0.3692 -0.0229
 9448W        W40664  18.291  27.550   2.281 -0.0511 -0.0081  0.2407
 9449W        W40665  13.270  19.767   2.767 -0.0770  0.0040 -0.2206
 9450W        W40666  10.142  25.561   2.875 -0.0844 -0.1269 -0.0459
 9451W        W40667  21.675   6.603   8.713 -0.2551 -0.0658  0.0056
 9452W        W40668  14.777  24.386   9.910 -0.2152 -0.0483 -0.1831
 9453W        W40669   7.585  10.563   7.850  0.0094  0.3906  0.0388
 9454W        W40670   6.125  20.346   2.782 -0.1443 -0.2444 -0.1906
 9455W        W40671  21.310  21.658   0.037 -0.3083  0.1605 -0.0470
 9456W        W40672  13.254   9.532  10.069 -0.1138  0.0834  0.0756
 9457W        W40673  21.992  16.230  10.084 -0.2139 -0.1986 -0.0287
 9458W        W40674  15.550   6.231   1.243  0.2321 -0.1652 -0.1237
 9459W        W40675   8.624  16.861  10.036 -0.2322  0.2484  0.3873
 9460W        W40676  14.209  19.210   1.585  0.0610 -0.3103 -0.0205
 9461W        W40677  25.965   4.919   3.835 -0.1905  0.0234 -0.2253
 9462W        W40678  20.379  13.190   0.764  0.0431 -0.1845 -0.2160
 9463W        W40679   0.018   0.739   9.814 -0.0941 -0.0250  0.0638
 9464W        W40680  22.043  25.670   8.474 -0.2269  0.2033  0.1974
 9465W        W40681  12.193   9.912   8.955 -0.1418 -0.0376  0.1774
 9466W        W40682  19.663  18.226   9.571 -0.0684 -0.3800  0.3460
 9467W        W40683   6.394  14.488   7.545 -0.0437 -0.2464 -0.3211
 9468W        W40684  19.566  16.979   2.094 -0.4157  0.0872 -0.1840
 9469W        W40685   1.104  23.198   1.074 -0.0373 -0.1923 -0.1312
 9470W        W40686  16.739  10.791   1.287  0.1626  0.1557  0.1361
 9471W        W40687   9.069   0.703   9.316  0.1802 -0.0943 -0.3427
 9472W        W40688   5.674  19.200   8.448 -0.0651 -0.0921 -0.3057
 9473W        W40689  18.036  27.421  10.490  0.1693 -0.5421 -0.0696
 9474W        W40690  25.528  21.410   8.669 -0.0132 -0.1476 -0.2462
 9475W        W40691  21.406   7.272  10.267  0.1313  0.0266 -0.0196
 9476W        W40692  11.791  17.427   8.141  0.0466 -0.1249  0.2259
 9477W        W40693   6.536   3.422   9.228  0.1856 -0.4530  0.0599
 9478W        W40694  13.554   0.261   0.760  0.0652  0.0439 -0.0685
 9479W        W40695   4.899  13.356   8.348 -0.5883  0.1523  0.1779
 9480W        W40696   4.816  11.363   2.272  0.2595  0.4023 -0.0587
 9481W        W40697  23.924   9.140   1.825  0.2841  0.2486  0.1221
 9482W        W40698  17.968  22.217  10.475  0.0256 -0.0591 -0.2668
 9483W        W40699  10.708   1.944   9.638 -0.2445 -0.1975  0.0347
 9484W        W40700  21.196  21.298   1.041  0.0836  0.2224  0.0363
 9485W        W40701   3.521  10.551  10.152 -0.0802  0.1183 -0.0441
 9486W        W40702  25.963  26.680   0.549  0.2110  0.0593  0.1637
 9487W        W40703  14.224   2.785   2.458  0.2927  0.0816 -0.0589
 9488W        W40704  15.569  10.380   9.937  0.1215  0.1399  0.0197
 9489W        W40705  15.670   9.297   7.933  0.1097  0.3121  0.1597
 9490W        W40706  14.083   6.798   7.472 -0.0365  0.0194  0.1193
 9491W        W40707   4.906  16.648   9.880  0.0492  0.1274 -0.2202
 9492W        W40708  26.845  16.575  10.480 -0.2693  0.0550  0.0348
 9493W        W40709  21.820   0.338   8.531  0.1803  0.0505  0.2722
 9494W        W40710  20.088  24.105   7.943  0.3256 -0.2580  0.1780
 9495W        W40711  12.251   9.051   9.127  0.2250  0.3075  0.2262
 9496W        W40712  26.457  15.793   2.914  0.0184  0.0260  0.1628
 9497W        W40713  14.772  19.367   7.873 -0.1169  0.2112 -0.1036
 9498W        W40714  21.432  22.957   8.644 -0.1044  0.1886  0.0719
 9499W        W40715  15.629  13.928   7.722 -0.2026  0.1852  0.3099
 9500W        W40716   0.888   7.428  10.293  0.1523  0.1799 -0.0731
 9501W        W40717  25.695  24.521   2.507 -0.2294  0.1566  0.0448
 9502W        W40718   1.944  13.140   1.725 -0.0615 -0.1926 -0.0265
 9503W        W40719   0.191   8.673   1.819  0.2791 -0.0077 -0.2001
 9504W        W40720   7.829  15.317   9.629 -0.1468  0.2077  0.0347
 9505W        W40721  26.300  22.101   9.889  0.1260  0.0129 -0.2456
 9506W        W40722   1.318  16.930   8.234 -0.0006 -0.2413 -0.1298
 9507W        W40723  24.868   4.234   3.965 -0.0109 -0.2634 -0.2062
 9508W        W40724  21.557   4.524   1.336 -0.0821 -0.1536  0.0666
 9509W        W40725   5.791  22.586   2.392  0.0214  0.2150  0.0227
 9510W        W40726  10.651   3.906   1.934 -0.3458 -0.0809 -0.1296
 9511W        W40727   4.895  18.176   8.829  0.0267 -0.2597 -0.2426
 9512W        W40728  17.887   8.602   2.053  0.1833  0.3272 -0.3096
 9513W        W40729  18.052   6.774   0.999 -0.1720  0.0130 -0.0598
 9514W        W40730  27.477   3.484   8.839  0.0912 -0.4208 -0.0979
 9515W        W40731  12.588  23.156   0.435 -0.2454 -0.0744  0.1891
 9516W        W40732  17.201   8.176   1.579 -0.0358 -0.1671  0.4594
 9517W        W40733  24.189   6.033   3.114  0.2252 -0.2246 -0.0277
 9518W        W40734   8.688   3.187  10.116  0.0310  0.0759 -0.0230
 9519W        W40735  10.777  17.544   2.968 -0.0311  0.2143 -0.0122
 9520W        W40736   4.961   5.499   1.374 -0.0289  0.1137 -0.0948
 9521W        W40737  13.972  17.563   0.911 -0.2310  0.1557 -0.0640
 9522W        W40738  17.311  16.414   0.881 -0.3225  0.0481  0.1796
 9523W        W40739  14.187  24.823   1.665  0.1209 -0.1768 -0.0084
 9524W        W40740   0.254   9.807   8.228  0.0802  0.0520 -0.0035
 9525W        W40741  27.477  10.587   9.177  0.3261 -0.1331  0.1507
 9526W        W40742   2.949  13.776   0.874  0.0920  0.1091 -0.0712
 9527W        W40743   3.965  15.496   0.715  0.0644 -0.1372 -0.2470
 9528W        W40744  14.009   1.727   0.290  0.1289 -0.3059 -0.0893
 9529W        W40745  25.500   9.955   9.410  0.2648 -0.0224 -0.4315
 9530W        W40746  19.420   6.030   7.451  0.1147  0.1609 -0.0504
 9531W        W40747   3.570  11.989   8.754  0.0131  0.1464  0.1292
 9532W        W40748  20.272   6.161   7.282 -0.0463  0.0627  0.1578
 9533W        W40749   8.689  19.977   3.129  0.0559 -0.1717  0.1091
 9534W        W40750  20.264  11.592   2.487  0.1212  0.1640 -0.2246
 9535W        W40751  20.273   1.993  10.504 -0.1110 -0.1505  0.1436
 9536W        W40752  16.207   4.819   1.027 -0.1151  0.1362 -0.3828
 9537W        W40753   1.420  13.890   9.746  0.1977 -0.1830  0.0719
 9538W        W40754   5.450  26.506  10.074 -0.2575 -0.0687  0.0882
 9539W        W40755  11.661   7.623   0.381 -0.0040 -0.0615  0.0896
 9540W        W40756  14.369  26.606   2.873  0.1731  0.1515  0.2123
 9541W        W40757   3.373  11.102   0.304  0.1329 -0.1439  0.1717
 9542W        W40758   0.501  27.315   2.397  0.0786 -0.0242 -0.0092
 9543W        W40759  16.280  11.981   8.923  0.1078 -0.1988  0.2231
 9544W        W40760   4.298   6.837  10.174 -0.1484  0.2433  0.0189
 9545W        W40761   9.262  22.396   2.160 -0.0662 -0.1533  0.0336
 9546W        W40762  27.503  14.392   9.375 -0.1005 -0.0639 -0.1497
 9547W        W40763  22.910  19.759   3.621  0.0128  0.0105  0.2569
 9548W        W40764  10.630  24.947   0.868 -0.1700  0.3010  0.0587
 9549W        W40765  21.665   3.253   1.030 -0.2231  0.1742 -0.3408
 9550W        W40766  22.058   9.575   9.448  0.0040 -0.4231  0.1981
 9551W        W40767  24.286  27.164   8.468 -0.0282  0.0311  0.1418
 9552W        W40768  13.799   5.567   0.909 -0.1632 -0.1363  0.0057
 9553W        W40769  21.660  10.376   9.318 -0.0279  0.3352 -0.0355
 9554W        W40770   1.294  20.862   8.271 -0.2164 -0.3970  0.2966
 9555W        W40771  22.398  20.390   2.126 -0.2073  0.1202  0.5528
 9556W        W40772   3.881   8.017   9.801 -0.0036 -0.0595 -0.0575
 9557W        W40773   8.912  17.232   3.095  0.4214  0.1474 -0.2890
 9558W        W40774  25.847   8.634   0.025  0.0030 -0.0030 -0.0310
 9559W        W40775   7.846  14.335   3.050 -0.0549 -0.0331  0.0249
 9560W        W40776   1.780  13.797   2.902  0.0024  0.0214 -0.1532
 9561W        W40777   2.722  15.195   0.002 -0.0510  0.1833  0.2142
 9562W        W40778  23.382  18.528   9.979 -0.2820  0.0303 -0.0328
 9563W        W40779   4.562   9.589   1.876 -0.3073 -0.0122 -0.0513
 9564W        W40780  11.121   6.281  10.437  0.0982 -0.0302 -0.2758
 9565W        W40781  15.078  16.508   8.927 -0.1377  0.2539 -0.3745
 9566W        W40782   2.144  22.617   2.545  0.0904  0.3162 -0.0625
 9567W        W40783  14.020  17.628  10.264 -0.0029 -0.3343  0.0342
 9568W        W40784  26.637  27.514   8.611 -0.3437 -0.2151  0.0659
 9569W        W40785  11.703  10.841   2.112 -0.1171  0.0656  0.0486
 9570W        W40786  12.175   2.499   8.225 -0.1477  0.0383  0.1128
 9571W        W40787  17.503  26.740   9.863 -0.1632 -0.0069  0.3866
 9572W        W40788  21.030  22.817   7.891 -0.1084 -0.1835  0.0180
 9573W        W40789  25.823   7.335   8.547 -0.1662 -0.0878  0.0160
 9574W        W40790   6.301   7.613   9.551 -0.0555 -0.2949  0.1116
 9575W        W40791   7.639  25.562   1.348  0.2001 -0.0393 -0.1720
 9576W        W40792  17.754   1.001   2.315 -0.0864 -0.1335 -0.0935
 9577W        W40793  21.535  19.135   2.250  0.1801 -0.2570 -0.2142
 9578W        W40794   9.794  25.814   1.121  0.2553  0.1456 -0.1127
 9579W        W40795  16.598   2.456  10.245 -0.0242 -0.1041  0.1751
 9580W        W40796  26.957  19.749   8.665 -0.0422  0.2144 -0.1084
 9581W        W40797  14.363   1.357   0.345 -0.0897  0.0199  0.0032
 9582W        W40798  19.134  18.137   2.154  0.0178 -0.0768  0.2666
 9583W        W40799  14.554  14.988   8.750  0.0504  0.3427 -0.1360
 9584W        W40800  19.882   7.569  10.192  0.1272 -0.0902 -0.1684
 9585W        W40801  13.357  21.555   1.278  0.2461 -0.0367  0.0070
 9586W        W40802   8.024   6.530   9.501 -0.2526  0.0183  0.0053
 9587W        W40803   8.926  22.162   9.977 -0.1527  0.0088 -0.1203
 9588W        W40804  13.614  25.742   9.810 -0.1570  0.0473  0.0415
 9589W        W40805  17.573  20.304   8.201 -0.1268  0.1249 -0.0600
 9590W        W40806  12.978   1.094   0.901  0.0806 -0.0284 -0.3135
 9591W        W40807  19.671   6.605   0.364  0.0861  0.1236 -0.3921
 9592W        W40808   0.771  20.011   9.178 -0.2072  0.1435 -0.1217
 9593W        W40809   1.605  10.567   2.348 -0.1014 -0.3586  0.0600
 9594W        W40810  15.652  20.362   9.197  0.2521  0.1766  0.0494
 9595W        W40811   4.099  10.777   9.762 -0.3610 -0.0929 -0.1034
 9596W        W40812  26.488  19.261   0.995 -0.0397 -0.0211 -0.0204
 9597W        W40813  23.746  24.660  10.214 -0.0824 -0.2758  0.1748
 9598W        W40814   8.342  20.253   2.959 -0.6398  0.6033 -0.0080
 9599W        W40815  22.346   3.073   1.603  0.3900  0.0360  0.1414
 9600W        W40816   1.630   5.301   2.700  0.1919 -0.0706 -0.0547
 9601W        W40817  21.374  18.939   2.848 -0.1533  0.1237  0.0237
 9602W        W40818   0.216   5.570   3.376 -0.0326  0.1332 -0.3255
 9603W        W40819   9.531   9.193   0.201 -0.0826  0.1619 -0.0918
 9604W        W40820   5.416  27.208   0.488 -0.0717 -0.0444  0.0984
 9605W        W40821  20.274  24.922   2.687  0.1645 -0.0742  0.1626
 9606W        W40822  10.663  10.378   0.121  0.0366 -0.0354  0.0070
 9607W        W40823  20.244  22.831   9.098  0.1447 -0.1511  0.0886
 9608W        W40824  18.199   2.145   1.939 -0.1414  0.0336  0.3006
 9609W        W40825   7.557   5.544   0.368  0.2570  0.0032 -0.0385
 9610W        W40826   9.641   4.065   7.826 -0.0510  0.1032  0.1046
 9611W        W40827  13.983  23.001   3.199  0.2927 -0.0023  0.0344
 9612W        W40828   6.378  24.847   1.481  0.1033 -0.1572  0.3199
 9613W        W40829  23.108  19.653   1.108  0.1503  0.1615 -0.2035
 9614W        W40830  27.300  20.143   8.006  0.1166  0.0098 -0.0511
 9615W        W40831  27.600  17.097   9.998  0.2098 -0.2163  0.2042
 9616W        W40832  15.231   4.544   9.237  0.2477  0.2126 -0.1202
 9617W        W40833  23.489  26.001   9.091  0.2132  0.2832 -0.0196
 9618W        W40834  27.469   3.290   1.754 -0.0787  0.3721 -0.1834
 9619W        W40835  11.564  17.924   1.861 -0.0408  0.0548 -0.3575
 9620W        W40836   0.139  16.788   7.967  0.0483 -0.0045  0.1496
 9621W        W40837  18.956  23.805   2.051 -0.0942  0.1011  0.0966
 9622W        W40838  23.215  18.926   1.360 -0.0067 -0.1518 -0.0066
 9623W        W40839   5.226   0.963   8.958 -0.3557 -0.1350 -0.1414
 9624W        W40840  20.690   1.670  10.361  0.0581 -0.0763  0.1468
 9625W        W40841  19.580  16.684   0.632  0.1951  0.0433 -0.1956
 9626W        W40842  24.300  16.434   0.382  0.0846 -0.2985 -0.0601
 9627W        W40843  20.337  13.419   8.708  0.1184  0.2751 -0.0936
 9628W        W40844  12.518   9.101   8.052  0.0132  0.1414 -0.0050
 9629W        W40845   8.936   0.467  10.261  0.3177 -0.2442 -0.0578
 9630W        W40846   4.086  21.982   3.165 -0.2522  0.0492  0.1125
 9631W        W40847  19.819  15.620  10.482 -0.0773  0.0962 -0.2745
 9632W        W40848  14.225   1.498   2.722 -0.3099 -0.0364 -0.2368
 9633W        W40849  13.649   4.598   7.626 -0.0509 -0.1237 -0.0917
 9634W        W40850  11.328   2.354   2.482 -0.3140  0.1120 -0.1381
 9635W        W40851   1.035  15.117   1.746  0.3028 -0.0063 -0.1621
 9636W        W40852  11.711   0.963   9.991  0.0840 -0.1990 -0.1377
 9637W        W40853  22.554   9.265  10.449 -0.0597 -0.2271  0.0767
 9638W        W40854  21.161   0.734   1.491  0.0513  0.3585  0.2576
 9639W        W40855  18.681  10.703   8.944 -0.0325 -0.0789 -0.3095
 9640W        W40856   8.586  26.883   3.547 -0.2477 -0.1583 -0.0771
 9641W        W40857  10.928   3.882   2.383 -0.2815 -0.0486  0.3606
 9642W        W40858  11.261  13.878   8.246 -0.0502 -0.0988 -0.0713
 9643W        W40859  22.275  20.380  10.061 -0.0532  0.0079 -0.1623
 9644W        W40860   1.704   7.810   1.363  0.4718 -0.2533 -0.2589
 9645W        W40861   6.554  18.100   8.241 -0.0574  0.1367  0.0240
 9646W        W40862   3.889   0.657   0.841 -0.0894  0.0901  0.4132
 9647W        W40863  12.407  22.854   0.815 -0.0183  0.2900  0.0471
 9648W        W40864   8.005  15.483   0.119  0.0979 -0.1659  0.0299
 9649W        W40865  11.418  26.675   8.666  0.3109  0.1433  0.0976
 9650W        W40866  12.418  11.868   1.193  0.0096 -0.2288  0.0546
 9651W        W40867  16.764  17.788   8.754  0.0092 -0.2188  0.1127
 9652W        W40868  10.543  25.071   2.299 -0.1752 -0.0390 -0.1135
 9653W        W40869  13.729  11.922   2.226  0.0165  0.3017  0.0398
 9654W        W40870   5.492   1.818   1.511  0.1296  0.0936  0.0848
 9655W        W40871  14.970   6.809   0.325 -0.0057  0.1542 -0.1348
 9656W        W40872   7.512   7.922   1.537 -0.2248  0.0485 -0.2645
 9657W        W40873  26.794   7.244   2.291 -0.1832  0.1685  0.2627
 9658W        W40874  23.396  25.375   9.100 -0.1362  0.0296  0.0548
 9659W        W40875   3.429  25.593   1.211 -0.1127  0.0619 -0.1854
 9660W        W40876  18.648  27.070   2.872 -0.2594 -0.1002  0.3206
 9661W        W40877   2.143  10.643   3.497 -0.4013 -0.1011  0.1029
 9662W        W40878   1.405   7.418   0.039  0.0514 -0.3539 -0.2971
 9663W        W40879  19.575   4.422   9.222  0.1649  0.1706 -0.0669
 9664W        W40880  26.511  26.824   1.913 -0.0030  0.0654 -0.0814
 9665W        W40881  23.145  20.300   8.377 -0.0341  0.0517  0.2020
 9666W        W40882  13.991   0.389   9.469  0.1709  0.2532  0.0211
 9667W        W40883  24.904  21.669   0.724  0.2352 -0.1076 -0.2991
 9668W        W40884  14.569  10.325   8.269  0.2146 -0.4962 -0.2646
 9669W        W40885  17.779  16.534   2.467  0.1658  0.1944 -0.1582
 9670W        W40886  15.451   8.512   7.973 -0.1309  0.0602  0.3123
 9671W        W40887  26.156   2.975   2.847  0.0635 -0.0960 -0.0634
 9672W        W40888   8.484  24.392   9.237 -0.0871  0.2472  0.1639
 9673W        W40889   1.817  21.442   2.716 -0.0536 -0.1656  0.3617
 9674W        W40890   7.856   6.977   2.220  0.2582  0.2127  0.1890
 9675W        W40891   8.407  27.611   1.581  0.3556 -0.1664 -0.1743
 9676W        W40892  15.871  22.993   8.579 -0.1219  0.6200 -0.1341
 9677W        W40893   4.528  16.544   2.795  0.0270  0.2322  0.0186
 9678W        W40894   3.139  23.476   7.960  0.0479  0.3072  0.0008
 9679W        W40895  10.194   6.929   0.260  0.0967  0.1526  0.3432
 9680W        W40896   3.558  27.119   8.302 -0.0712  0.4057 -0.2346
 9681W        W40897  19.302  25.083  10.083 -0.2654 -0.0567 -0.0142
 9682W        W40898  20.252   9.938   7.829 -0.1508 -0.0114  0.0640
 9683W        W40899  11.070  19.774   2.217 -0.0372  0.1127 -0.1790
 9684W        W40900   6.491  23.853   2.241 -0.0410 -0.1465 -0.1556
 9685W        W40901  16.075  15.485   8.584 -0.2072  0.1618  0.4390
 9686W        W40902  25.224  18.356   7.773  0.0883  0.1710 -0.0759
 9687W        W40903  21.305  10.230   9.650  0.3413  0.1167  0.1006
 9688W        W40904   9.257   1.663   9.278 -0.0681  0.2239 -0.0173
 9689W        W40905  21.614  14.255   2.677 -0.0538 -0.3011  0.2504
 9690W        W40906  15.629   8.248   9.904 -0.0069  0.3757 -0.1283
 9691W        W40907  24.335  18.441   9.738 -0.0289 -0.0578 -0.2367
 9692W        W40908   3.122  27.012   2.176 -0.0735  0.0173 -0.0745
 9693W        W40909  21.406  18.025   8.543  0.0560 -0.0922 -0.2774
 9694W        W40910  26.875  14.650   9.849  0.0560 -0.0184 -0.1253
 9695W        W40911   2.204  14.754   8.592 -0.0550  0.2023 -0.2227
 9696W        W40912  11.466  16.697   8.778 -0.0622 -0.1625 -0.0317
 9697W        W40913   5.304  21.344   7.750 -0.0957 -0.1769 -0.2604
 9698W        W40914  12.192   3.597  10.037 -0.3744 -0.1008  0.3464
 9699W        W40915  11.269  16.535   2.250 -0.0331 -0.1279 -0.0919
 9700W        W40916   9.895   0.484   8.461  0.1510 -0.2355 -0.0127
 9701W        W40917   3.063  12.038   1.826  0.0118 -0.2367 -0.0501
 9702W        W40918   9.210  11.757   1.820  0.0967 -0.0305  0.3088
 9703W        W40919   0.086  11.578   0.984  0.0197  0.3738  0.2065
 9704W        W40920   4.328  20.426   9.610  0.2027 -0.0649 -0.0681
 9705W        W40921   5.928  23.026   3.119  0.0285  0.0314  0.0027
 9706W        W40922  24.062   7.908   2.932 -0.1281 -0.1428 -0.2243
 9707W        W40923  13.354  18.110   9.186  0.0561 -0.0521  0.0599
 9708W        W40924   0.298  13.202   2.718  0.3200 -0.0384  0.4491
 9709W        W40925  27.287  15.770   1.130  0.1162 -0.2847  0.2530
 9710W        W40926  16.443  21.261  10.540  0.0914 -0.0720  0.2138
 9711W        W40927  23.988  11.385   2.871 -0.0502  0.1203 -0.0343
 9712W        W40928   6.299   2.642   9.559 -0.0319  0.1079  0.0853
 9713W        W40929   1.159  21.716   9.932  0.0546  0.0394 -0.2926
 9714W        W40930  11.626  18.238  10.087  0.2252  0.0142 -0.1823
 9715W        W40931  20.370   3.962   1.773  0.0881 -0.0730  0.3084
 9716W        W40932   3.826   4.287  10.133 -0.1062 -0.2388 -0.1248
 9717W        W40933  15.892   0.820   9.695 -0.0812 -0.0108 -0.4414
 9718W        W40934  12.470  16.328   9.034 -0.0731  0.2731  0.1571
 9719W        W40935   4.490  15.220   7.756  0.2507 -0.0855  0.0322
 9720W        W40936  12.850  22.015   3.240  0.0980  0.2431 -0.0746
 9721W        W40937  16.418  16.156   9.015  0.1748 -0.0603  0.0538
 9722W        W40938  26.451   2.067   2.669  0.2507  0.0882 -0.0225
 9723W        W40939  24.713   9.704   2.646 -0.1014  0.0863 -0.1166
 9724W        W40940  11.089  15.237   1.079  0.0635  0.0825  0.1923
 9725W        W40941  20.406   1.806   7.516 -0.2285  0.1196 -0.0559
 9726W        W40942  14.780  22.601   2.275  0.1556  0.1327 -0.1737
 9727W        W40943  13.264  10.514   3.799  0.1473 -0.0385  0.0754
 9728W        W40944   4.680  19.971   9.239  0.3030 -0.0086 -0.1346
 9729W        W40945  24.654   1.220  10.002 -0.0741 -0.0687  0.2090
 9730W        W40946  15.903  23.885  10.207 -0.2073 -0.1253 -0.1872
 9731W        W40947  10.426   8.723   9.228  0.0978  0.2906  0.2611
 9732W        W40948   3.412   3.470   9.572  0.0640  0.0519  0.0292
 9733W        W40949  27.214  12.047   8.618  0.3508  0.1339  0.1788
 9734W        W40950  20.643  19.246   9.381  0.1892 -0.0337  0.1280
 9735W        W40951   2.713   9.581   1.896  0.0431 -0.2365 -0.0478
 9736W        W40952  13.615  10.173   2.119  0.0115  0.1690  0.0996
 9737W        W40953   0.493  15.773  10.505  0.1217 -0.1196 -0.1260
 9738W        W40954  21.410   7.627   2.215 -0.2785  0.0110  0.2688
 9739W        W40955   2.739  26.193   1.730 -0.2175  0.1924 -0.0853
 9740W        W40956  10.342  17.088   1.846 -0.3524  0.1412 -0.1267
 9741W        W40957   1.282  21.361   0.328  0.1132  0.0562  0.0773
 9742W        W40958  19.781   0.060   8.860  0.1851 -0.3787  0.2627
 9743W        W40959  23.727  26.770   2.535  0.1285 -0.1121 -0.4036
 9744W        W40960  24.064   2.487   1.494  0.0847 -0.0710  0.0028
 9745W        W40961   3.711   6.801   9.164  0.3878 -0.2017  0.3081
 9746W        W40962  19.215   5.989   2.838  0.2773  0.1082 -0.0150
 9747W        W40963   7.408  24.051   8.651 -0.0635  0.1279 -0.1976
 9748W        W40964   9.469   9.384   2.084 -0.0694 -0.2630  0.2280
 9749W        W40965   6.017   2.950   8.298 -0.2201 -0.1267 -0.0421
 9750W        W40966   7.391  16.055   8.618  0.1157 -0.2082 -0.0650
 9751W        W40967  12.763  22.630   7.809 -0.3210  0.1272 -0.0875
 9752W        W40968  24.547  16.084   1.614 -0.0707 -0.2259  0.0754
 9753W        W40969   8.791  18.753   8.489 -0.2754  0.0731  0.2529
 9754W        W40970  24.805  24.359   0.998  0.0255 -0.0560  0.0630
 9755W        W40971  10.973  24.171   7.798  0.1680 -0.0662 -0.0286
 9756W        W40972  18.244  25.132   3.123  0.1748  0.2893  0.3806
 9757W        W40973  26.989  12.536   8.346 -0.1368 -0.1481  0.1631
 9758W        W40974  18.853   2.222   8.027 -0.1495 -0.3307 -0.0517
 9759W        W40975   6.104  20.093   2.341  0.1093 -0.0880 -0.1211
 9760W        W40976  24.541  19.858   8.990 -0.0015  0.0484 -0.0381
 9761W        W40977  15.228   1.598   9.409 -0.0215  0.1848 -0.1562
 9762W        W40978   1.742   2.941   0.598  0.1872  0.0912 -0.3980
 9763W        W40979  23.856  26.824   8.385  0.1242  0.0096 -0.0858
 9764W        W40980   9.703   2.609  10.070 -0.1882  0.1823  0.1426
 9765W        W40981  21.791   9.403   9.891  0.0040 -0.0874 -0.0842
 9766W        W40982   5.540   3.809   0.643  0.1180 -0.1500 -0.1190
 9767W        W40983  10.092   6.659   0.782  0.0166  0.3241  0.1232
 9768W        W40984   7.639   4.469   1.746 -0.1787  0.0971  0.1072
 9769W        W40985   0.475   8.492   0.908  0.1080 -0.2514  0.1822
 9770W        W40986  17.869  10.132   9.689  0.2071  0.0749 -0.4548
 9771W        W40987   8.056  25.729   1.795  0.0319  0.1750  0.2405
 9772W        W40988  24.646   9.570   0.488  0.0618  0.1982 -0.2929
 9773W        W40989  17.761  25.413   3.268 -0.1275  0.4053 -0.1641
 9774W        W40990  20.129  25.796   7.454  0.0450 -0.1215  0.0187
 9775W        W40991  14.645   0.148   0.497 -0.0377 -0.0295 -0.0799
 9776W        W40992   7.205   9.415   2.085  0.0448  0.1432 -0.0654
 9777W        W40993   1.114  23.359   9.311  0.1921  0.1695  0.1559
 9778W        W40994  13.614  10.169   8.340 -0.1686  0.0784 -0.0851
 9779W        W40995  25.319  11.844   0.224  0.1341  0.0632 -0.1914
 9780W        W40996  25.805   2.209   0.528 -0.0264  0.2593  0.2372
 9781W        W40997  25.093   4.691   8.752 -0.0097 -0.0138  0.0970
 9782W        W40998   7.580   8.293   7.774 -0.1118  0.2484 -0.0708
 9783W        W40999  27.498  22.857  10.063 -0.2842  0.0794  0.0224
 9784W        W41000   3.836  14.913   2.161  0.0515  0.3320 -0.0284
 9785W        W41001  27.609  10.485   3.475  0.0454 -0.1677  0.2419
 9786W        W41002   3.986  16.464   1.394  0.1083 -0.0069  0.0682
 9787W        W41003  20.512  13.917   1.365  0.2146 -0.1081  0.1320
 9788W        W41004   8.397  18.104   2.070 -0.0682 -0.1058  0.3112
 9789W        W41005  15.241  13.319   8.845 -0.3571 -0.3187 -0.1411
 9790W        W41006  17.310  13.956   7.028 -0.3346  0.1930 -0.0265
 9791W        W41007   9.458   3.334   1.977  0.1248  0.0196  0.1788
 9792W        W41008  11.925  11.108   3.140 -0.1844 -0.2698 -0.2383
 9793W        W41009  13.062  16.827   8.539  0.1216  0.1835 -0.1601
 9794W        W41010   2.472  27.112   9.821 -0.0339  0.1059 -0.4191
 9795W        W41011   7.031  27.521   9.208  0.1258  0.1092 -0.1787
 9796W        W41012  10.418   9.302   1.925  0.0269  0.0466  0.1207
 9797W        W41013   9.056   7.895   2.108  0.0854  0.1923 -0.0046
 9798W        W41014   5.677   3.616   2.208 -0.1776  0.0597  0.0477
 9799W        W41015  18.788   1.836  10.000  0.1816 -0.2986  0.1106
 9800W        W41016   9.736   4.237   0.479  0.1572  0.3130  0.0240
 9801W        W41017  26.777  11.537   1.801  0.0338  0.1414 -0.4105
 9802W        W41018  12.917  23.796   2.671 -0.0474 -0.1456 -0.4479
 9803W        W41019  25.544  19.666   9.580 -0.1099  0.0458 -0.0093
 9804W        W41020  12.125   0.823  10.274 -0.3650  0.1448  0.0163
 9805W        W41021  13.096  11.409   8.619 -0.0060 -0.0513  0.3742
 9806W        W41022   4.675  16.965   7.966  0.2967  0.0632 -0.1412
 9807W        W41023   3.696  12.548   0.689  0.0906 -0.0328 -0.5244
 9808W        W41024  20.146  20.890  10.165 -0.1331  0.2317 -0.2682
 9809W        W41025   6.416   0.633   9.134  0.0094 -0.1774 -0.0660
 9810W        W41026  13.713  23.673   2.113  0.1230  0.0295  0.0405
 9811W        W41027  26.694  19.683   0.847 -0.0761 -0.1185  0.3416
 9812W        W41028  21.665  23.519  10.107  0.2555 -0.0317  0.2710
 9813W        W41029  26.436  25.821   0.734  0.0987 -0.1650  0.2131
 9814W        W41030   3.611  18.607   0.886 -0.4128  0.1063  0.0258
 9815W        W41031   4.275  17.526   1.601  0.2779 -0.0111 -0.1880
 9816W        W41032  24.226   5.250   9.151  0.2407  0.2721  0.0511
 9817W        W41033  16.998   0.121   3.084  0.1592  0.0269 -0.0460
 9818W        W41034  20.462   8.686   9.146  0.1983 -0.2537  0.0025
 9819W        W41035  14.656   4.544   7.987  0.1566 -0.2244 -0.1578
 9820W        W41036  18.574  22.221   3.128 -0.1205 -0.3035  0.1101
 9821W        W41037   1.229  12.067   1.420 -0.0211  0.1315 -0.0798
 9822W        W41038   1.396  25.828   2.270 -0.2255 -0.3551 -0.2059
 9823W        W41039  25.747   4.255   1.801  0.0894 -0.0281  0.3395
 9824W        W41040   5.469   9.975   9.208  0.0323 -0.2242  0.1198
 9825W        W41041   0.428  25.464   2.131 -0.2863 -0.2367 -0.0459
 9826W        W41042  20.386   1.247   3.100  0.1757 -0.0105  0.1671
 9827W        W41043   5.307  13.052   0.507  0.2452  0.2044  0.1118
 9828W        W41044  12.408  12.082   9.707 -0.3775  0.1433  0.0472
 9829W        W41045  23.895  23.556   2.140 -0.0789  0.0121  0.0862
 9830W        W41046  23.281   3.336   2.475 -0.1849  0.0903  0.0547
 9831W        W41047  24.442   1.877   8.681 -0.1319 -0.0429  0.1116
 9832W        W41048  15.106  24.087  10.128  0.0713  0.2664  0.1225
 9833W        W41049  11.763   9.918   9.812  0.0239 -0.0320  0.2282
 9834W        W41050  18.489  24.416   9.278 -0.0234 -0.0059  0.0333
 9835W        W41051  16.655   6.862   7.897 -0.0499  0.0782  0.0820
 9836W        W41052   2.540  10.343   2.191 -0.1876 -0.1416 -0.2307
 9837W        W41053  24.733  23.141   1.925  0.2683  0.1379  0.1395
 9838W        W41054  17.711  21.403   9.530 -0.1802 -0.0289 -0.0573
 9839W        W41055  12.718  15.651   0.325  0.1948  0.1435 -0.2547
 9840W        W41056  16.997  14.251   0.893  0.1426  0.0137 -0.1731
 9841W        W41057   7.226   9.399   0.560  0.0540  0.0530 -0.0088
 9842W        W41058   2.844  12.952   7.708  0.2960 -0.3250  0.0034
 9843W        W41059  16.543   7.672   1.985  0.0842  0.2333 -0.4528
 9844W        W41060   4.930   1.929   8.128 -0.2274  0.1601  0.0177
 9845W        W41061  16.604   0.852   2.299 -0.2989  0.1890 -0.1213
 9846W        W41062   2.658  11.953   7.654 -0.0843  0.0315  0.0798
 9847W        W41063  25.987  10.460  10.123  0.1810  0.0741 -0.2606
 9848W        W41064   6.860  25.258   9.880 -0.0908 -0.0385  0.5048
 9849W        W41065  13.175  11.973   1.153 -0.4264 -0.4230 -0.0475
 9850W        W41066  27.228  25.314   2.636 -0.0412 -0.1549 -0.2337
 9851W        W41067  26.015   4.419   9.836  0.0480  0.1904  0.2180
 9852W        W41068  23.808  22.996   9.769 -0.0609 -0.3496  0.1089
 9853W        W41069   4.861  13.539   9.936 -0.0862  0.1028  0.0562
 9854W        W41070  20.176  26.248   1.474 -0.0128 -0.0793  0.0340
 9855W        W41071   8.083  23.204   0.313 -0.1587  0.2499 -0.2134
 9856W        W41072  11.666   7.015   7.494  0.2631 -0.0157  0.1122
 9857W        W41073  22.344  23.935   3.526  0.0216  0.0511  0.1144
 9858W        W41074   6.155  25.271   1.247  0.0818  0.0324  0.1443
 9859W        W41075  15.207   3.343   0.784  0.1441 -0.0300  0.0224
 9860W        W41076  13.095  17.034   2.654 -0.1732 -0.0331 -0.2700
 9861W        W41077  10.473  27.457   1.485 -0.4282 -0.0822  0.0393
 9862W        W41078  19.170  19.338   1.113  0.1386  0.2212 -0.0671
 9863W        W41079   0.594  19.140   0.889  0.2258  0.1354 -0.3459
 9864W        W41080  12.495   4.076   2.728 -0.0385  0.1242 -0.0559
 9865W        W41081  21.294  19.377   1.787  0.2617  0.2683  0.4491
 9866W        W41082  19.469   4.189   1.602 -0.0211 -0.0303 -0.0403
 9867W        W41083   1.131  17.858   3.018  0.2134  0.0542  0.2493
 9868W        W41084  24.756  11.474   8.738 -0.0643  0.3285 -0.2657
 9869W        W41085  19.382   0.848   0.204 -0.1037 -0.1214  0.1975
 9870W        W41086   8.123  15.621   9.862  0.0713  0.2354  0.0672
 9871W        W41087   2.698  16.104   8.319  0.1679 -0.2332  0.0097
 9872W        W41088  15.504   8.566   9.113 -0.0842  0.0531 -0.1165
 9873W        W41089   3.887  21.920   4.271  0.0926  0.0423 -0.0388
 9874W        W41090  14.233   1.216   1.274 -0.1392 -0.0839  0.0183
 9875W        W41091  19.827  17.783   1.481 -0.1434  0.0835 -0.0997
 9876W        W41092  12.239  10.292   8.099  0.0904  0.1355  0.1406
 9877W        W41093  17.679  16.900   2.003 -0.0916  0.0957 -0.0860
 9878W        W41094  18.700  15.344   8.023 -0.1077 -0.1265  0.0420
 9879W        W41095  25.268  11.982   9.841  0.2989  0.1429 -0.1509
 9880W        W41096  20.542  24.099   9.288  0.1229 -0.1255 -0.3496
 9881W        W41097  25.772   4.447   0.797  0.0235  0.1293 -0.4329
 9882W        W41098  17.261   8.995   8.490 -0.2395  0.1733 -0.0268
 9883W        W41099  22.034  22.122   0.678 -0.2214 -0.1107 -0.0840
 9884W        W41100  24.838  15.882   3.082 -0.1155 -0.2394  0.0556
 9885W        W41101  14.784  17.488   8.443 -0.0043  0.0277 -0.0428
 9886W        W41102  24.587  14.128   8.404  0.0634  0.0957 -0.2249
 9887W        W41103  27.013  17.302   3.665  0.1782 -0.0636  0.0076
 9888W        W41104   0.133  20.639   0.343  0.0126  0.1347 -0.0250
 9889W        W41105  19.024  19.092   0.264 -0.0662 -0.1182  0.4660
 9890W        W41106  22.100  17.033   2.065 -0.3359  0.1783 -0.0681
 9891W        W41107  26.745  15.932   1.707  0.0690 -0.1858  0.1067
 9892W        W41108  19.209  20.301   2.499  0.0491 -0.0670 -0.0401
 9893W        W41109  18.682   3.165   0.304 -0.4240  0.0486  0.2226
 9894W        W41110   7.045  19.226   8.904 -0.0664  0.0721 -0.0148
 9895W        W41111  10.381   0.625   7.722 -0.0087 -0.0855 -0.2798
 9896W        W41112   1.639   2.795   3.121 -0.2194 -0.1037 -0.2129
 9897W        W41113  22.113   7.928   7.954  0.0489 -0.0948 -0.0573
 9898W        W41114  20.012   8.859   9.606  0.1521 -0.3057  0.1816
 9899W        W41115  13.660  11.233   0.696 -0.1624  0.0158 -0.0879
 9900W        W41116  17.194   6.218   9.364 -0.0677  0.2528 -0.0445
 9901W        W41117  13.796  16.662   2.300 -0.1262 -0.0381  0.0499
 9902W        W41118  27.158   8.138   1.411 -0.3816 -0.2178 -0.0581
 9903W        W41119  12.060  12.915   9.192  0.2553 -0.1218 -0.3232
 9904W        W41120  10.137  17.566   1.086  0.1051 -0.2075 -0.4985
 9905W        W41121   2.488  23.042   2.552  0.0734  0.0686  0.2569
 9906W        W41122  24.932   2.037   1.045 -0.0434  0.1657  0.3453
 9907W        W41123  17.700  23.410   9.301 -0.0553 -0.0279  0.1812
 9908W        W41124  23.156   1.353   0.709 -0.1304  0.0540  0.0593
 9909W        W41125  23.258   6.120   9.692  0.0472 -0.2660  0.0877
 9910W        W41126  14.821  27.605   9.689 -0.1316 -0.0484 -0.3486
 9911W        W41127  25.939  26.519   2.262  0.1786  0.1382 -0.1634
 9912W        W41128   3.845  21.412   2.970 -0.0155 -0.2242 -0.0079
 9913W        W41129   6.712  25.319   7.493 -0.2737 -0.0973  0.4562
 9914W        W41130  24.542  12.104   1.742  0.1947  0.0933 -0.3183
 9915W        W41131   2.187  26.755  10.519 -0.0834 -0.0552 -0.1994
 9916W        W41132  11.389   8.787   8.788 -0.2365  0.0954 -0.2001
 9917W        W41133   4.188   5.696   1.846  0.1329  0.1004  0.3467
 9918W        W41134  23.809  16.773   9.301 -0.0449 -0.1126 -0.5243
 9919W        W41135  16.588  23.620   1.758  0.3070  0.1837 -0.1651
 9920W        W41136   9.399  13.438   9.092  0.1426 -0.2609  0.0925
 9921W        W41137   9.739   8.758   1.889 -0.2059 -0.3105  0.1668
 9922W        W41138  12.961   4.282   1.849 -0.0991  0.1329 -0.0788
 9923W        W41139  14.267  19.102  10.262 -0.3238 -0.0070  0.0081
 9924W        W41140   6.841   9.391   2.699  0.4434 -0.2028  0.0339
 9925W        W41141  24.816  15.093   0.896  0.1634  0.0505  0.0014
 9926W        W41142   1.601  26.412  10.453 -0.1294 -0.1691 -0.1351
 9927W        W41143  24.423  27.211   9.610 -0.1186  0.0900 -0.3601
 9928W        W41144   4.727   7.948   9.260  0.5366 -0.0746  0.0961
 9929W        W41145   1.976   1.317   2.118 -0.5366 -0.1146  0.0646
 9930W        W41146   9.903   5.723   1.198  0.2308  0.0703 -0.0049
 9931W        W41147   0.875   4.754   2.249  0.0414 -0.1158 -0.3447
 9932W        W41148   0.898  21.668   1.924  0.2652  0.2299 -0.1016
 9933W        W41149   2.461  21.439   0.911  0.1557  0.3694 -0.1249
 9934W        W41150  25.158   2.558   3.243  0.0118  0.1813  0.1031
 9935W        W41151   2.519  26.911   0.786 -0.1339  0.0424 -0.0902
 9936W        W41152   8.134   7.105   1.276 -0.3197 -0.2311  0.1531
 9937W        W41153  20.429  23.461   2.639  0.0402 -0.2076 -0.1826
 9938W        W41154  13.801  16.798   3.329 -0.1233  0.2589  0.1182
 9939W        W41155  16.190  13.564   8.548  0.3499 -0.1238 -0.0766
 9940W        W41156   4.174  24.950   2.273  0.1069 -0.1614  0.0841
 9941W        W41157   9.701  16.934   8.674  0.0157  0.1566 -0.0256
 9942W        W41158  12.951   7.746   2.631  0.0053 -0.1193 -0.0176
 9943W        W41159  23.200  24.001   9.150 -0.0621  0.0773 -0.0070
 9944W        W41160  25.006   8.251   1.131 -0.0199  0.0042 -0.1727
 9945W        W41161  21.140  22.821   9.013 -0.0566 -0.1101 -0.0564
 9946W        W41162  19.499  21.007   3.074 -0.1261 -0.0622 -0.4697
 9947W        W41163  14.433  18.065   8.664 -0.0545 -0.4956  0.1495
 9948W        W41164   9.616   2.282   9.563 -0.0025 -0.0229 -0.1710
 9949W        W41165  24.228  20.889   8.310  0.0845  0.1442 -0.3375
 9950W        W41166  24.689   1.790   9.144  0.0264 -0.1066 -0.4651
 9951W        W41167  11.907   6.493   1.772  0.1342  0.2022  0.3007
 9952W        W41168  22.002   1.072   1.296  0.0004  0.0750 -0.2444
 9953W        W41169   2.936  20.248   2.606 -0.0097 -0.0370  0.2553
 9954W        W41170  18.124  15.262   2.302 -0.0027  0.0869  0.2287
 9955W        W41171   6.278  12.359   9.231 -0.0965 -0.1247 -0.0741
 9956W        W41172   7.388  26.200   2.914  0.0547  0.0220 -0.0388
 9957W        W41173  14.235  10.876   0.506 -0.0670  0.1919 -0.1486
 9958W        W41174   8.797  11.989   8.606 -0.0663  0.2277 -0.3718
 9959W        W41175  19.268  11.086   0.017  0.0345  0.1334 -0.3057
 9960W        W41176  16.042  21.763   8.091  0.1355  0.1644 -0.1022
 9961W        W41177  10.347  19.507   8.497 -0.0692 -0.4130 -0.0475
 9962W        W41178  14.672   5.027   1.869 -0.1207  0.0479 -0.0475
 9963W        W41179  16.225  14.863   9.177  0.1674  0.0617  0.0534
 9964W        W41180   9.676   9.214   2.507  0.6381 -0.0813 -0.1628
 9965W        W41181   0.111  19.089  10.532  0.1450 -0.1277 -0.2036
 9966W        W41182   0.327  25.130   8.189 -0.0501  0.1082  0.0734
 9967W        W41183   4.464   3.983   2.556  0.2090  0.1289 -0.0990
 9968W        W41184   3.358  23.473   2.633 -0.1514  0.0195 -0.0032
 9969W        W41185  27.009   0.574   0.506  0.1372  0.0678  0.2450
 9970W        W41186  15.897  22.376   1.316  0.0401 -0.3000 -0.0501
 9971W        W41187  12.692   3.388   1.448  0.1676 -0.0761  0.2937
 9972W        W41188   0.398   8.249   1.524 -0.1003  0.0183 -0.3431
 9973W        W41189   2.363  17.587  10.413  0.1554  0.1484 -0.0517
 9974W        W41190  10.130  27.006   0.530 -0.3093  0.1661  0.0596
 9975W        W41191   4.651  12.428   7.647 -0.1028  0.3117 -0.0365
 9976W        W41192   6.203  21.141   0.970 -0.0064  0.2110 -0.1362
 9977W        W41193  18.479  13.939   8.816 -0.3251 -0.0482  0.0913
 9978W        W41194   9.761   2.041  10.017 -0.0484 -0.0217  0.5664
 9979W        W41195   8.339  12.294   0.698 -0.2227 -0.0612 -0.0435
 9980W        W41196   5.185   2.016   1.888  0.5117 -0.1370 -0.2907
 9981W        W41197  11.080   0.487  10.444 -0.0667  0.2319  0.2492
 9982W        W41198   9.910  16.888   1.655 -0.0303 -0.0529  0.0829
 9983W        W41199  25.064  24.858   2.277 -0.3629  0.2877  0.1354
 9984W        W41200  16.343   4.196   7.639 -0.1473 -0.0435  0.0150
 9985W        W41201  23.920  16.003   9.854  0.0516  0.0450 -0.1485
 9986W        W41202   6.153   4.344   1.182 -0.1862 -0.1413 -0.3952
 9987W        W41203  19.615  26.888  10.305  0.0065  0.3599  0.2059
 9988W        W41204  11.392   0.611   9.341 -0.2439 -0.0352 -0.0369
 9989W        W41205   3.251  12.001   9.158 -0.1182  0.1872  0.0151
 9990W        W41206  21.507  18.582   7.374  0.1483  0.0464 -0.0962
 9991W        W41207  14.256   7.687   2.136 -0.2838  0.0182 -0.1780
 9992W        W41208  15.845   6.331   1.877  0.0398 -0.1540  0.3009
 9993W        W41209  23.159  13.397  10.207 -0.0682 -0.0095  0.3905
 9994W        W41210  21.363  13.023   8.792  0.0381  0.3455  0.1747
 9995W        W41211  15.758  16.184   8.268  0.0774  0.0104  0.1513
 9996W        W41212  15.131  14.852   3.044 -0.2392  0.1940  0.1530
 9997W        W41213  25.471  22.567   9.585 -0.1444 -0.0904 -0.1216
 9998W        W41214  26.193   0.810   1.250 -0.3125 -0.1400 -0.2334
 9999W        W41215  27.135  11.536   8.458  0.0126 -0.1179 -0.1163
10000W        W41216  10.128  11.243   9.006 -0.1300 -0.0401 -0.0076
10001W        W41217   8.498  11.301   9.673  0.1048  0.0202 -0.3971
10002W        W41218   9.774   2.283   1.352  0.0795  0.1639  0.0996
10003W        W41219  11.902   4.723   2.727 -0.0526  0.2828 -0.1547
10004W        W41220  15.623  16.510  10.226  0.0956 -0.0134 -0.1032
10005W        W41221   2.066  24.617   1.522 -0.0183 -0.0225 -0.0225
10006W        W41222  23.296   1.973  10.368 -0.0622 -0.3067 -0.0345
10007W        W41223   7.845   2.529   0.614 -0.2093  0.0869 -0.2242
10008W        W41224  13.131   4.423  10.483  0.1390 -0.3851  0.0334
10009W        W41225  25.974  15.781   1.219 -0.0161 -0.1542  0.0621
10010W        W41226  20.721  15.954   8.458  0.0458  0.3030 -0.0591
10011W        W41227  15.411  18.013   1.255 -0.0468 -0.2017 -0.2458
10012W        W41228   1.748  18.834   3.143  0.0962  0.1454  0.3845
10013W        W41229   1.308  16.991   1.126  0.0425  0.0436  0.0062
10014W        W41230  21.137   2.559   1.073 -0.6403  0.3516 -0.3188
10015W        W41231   0.646   9.794  10.354 -0.0018  0.0854  0.1069
10016W        W41232   7.123   1.245   2.668 -0.0294  0.0863 -0.1936
10017W        W41233   1.637  16.725   1.402  0.1674 -0.2193 -0.0431
10018W        W41234   2.351  24.220   0.700 -0.1057 -0.4032  0.0488
10019W        W41235  11.644  13.205  10.308  0.2746  0.1659 -0.2324
10020W        W41236  17.364   5.294   7.981 -0.0560 -0.2209 -0.0501
10021W        W41237  11.211  15.982   3.554  0.0981  0.0193  0.0243
10022W        W41238  20.171   1.054   9.923  0.1854  0.0507  0.0325
10023W        W41239  27.071  24.316   9.694  0.0360 -0.3244  0.0674
10024W        W41240   3.521  13.626   3.591 -0.2029  0.1689 -0.0006
10025W        W41241  10.662  24.169   2.454 -0.2489 -0.1816  0.1448
10026W        W41242  22.132  17.432   7.577 -0.1753  0.0717 -0.2427
10027W        W41243   3.201  25.565   0.449 -0.0088 -0.3847  0.0096
10028W        W41244  24.028  12.954  10.036 -0.1893 -0.3981 -0.0136
10029W        W41245  24.712  22.012   7.585  0.3455  0.0181  0.1308
10030W        W41246   9.212  24.792   8.300 -0.3646  0.0802 -0.1190
10031W        W41247  15.930  13.641   1.794 -0.0683  0.1143  0.3955
10032W        W41248  19.689   2.474   9.284  0.1769 -0.0171  0.0357
10033W        W41249  18.578  11.429   0.737  0.0042 -0.5020 -0.1836
10034W        W41250  23.764  18.585   8.179  0.1199  0.1872  0.1175
10035W        W41251  20.443  12.932   0.396  0.4708  0.2121  0.0251
10036W        W41252  23.062   7.767   1.002  0.2748  0.3385 -0.0609
10037W        W41253  21.745  13.369   2.628 -0.2032 -0.0249 -0.0898
10038W        W41254  13.270  27.471   1.462 -0.2895 -0.1389  0.0983
10039W        W41255   6.629   0.636   7.617 -0.0711  0.0853  0.1875
10040W        W41256   4.708  26.244   7.903 -0.0734 -0.1698 -0.0413
10041W        W41257  23.336   0.812   9.174 -0.2921 -0.0445  0.3258
10042W        W41258   6.873  17.364   8.277  0.1187 -0.0010  0.1789
10043W        W41259   6.967   1.426   7.919 -0.0343 -0.0699 -0.1322
10044W        W41260   9.343   5.633   9.684  0.1729  0.0160  0.0968
10045W        W41261  26.468  14.449   2.042  0.0094  0.2136  0.2146
10046W        W41262  21.224  19.508   0.614 -0.3369 -0.2656 -0.0509
10047W        W41263  22.784  26.045   1.794  0.0820 -0.0721  0.1588
10048W        W41264  19.055   6.487   7.490  0.1645  0.2951  0.0070
10049W        W41265   6.744   2.132  10.256  0.5423 -0.0011 -0.1140
10050W        W41266   4.778  11.481  10.136  0.1657 -0.0985  0.3148
10051W        W41267   2.822  12.199   0.776  0.0352 -0.2548  0.2006
10052W        W41268  12.761   7.829   1.429  0.1498  0.1859 -0.0474
10053W        W41269   7.457  16.459   8.961 -0.2816  0.1004 -0.0517
10054W        W41270   2.528   2.556   1.552 -0.0245  0.1486  0.0498
10055W        W41271   1.567  24.331   8.378  0.0495 -0.2391 -0.0760
10056W        W41272  20.849   7.579   7.775  0.0397 -0.0597  0.3204
10057W        W41273  18.771  21.689   3.437 -0.0846  0.1015  0.0629
10058W        W41274   2.254  23.614   2.557 -0.3186 -0.0015 -0.1347
10059W        W41275  18.446  26.249   8.502 -0.2409  0.4915 -0.0408
10060W        W41276  23.288   1.457   1.886  0.0874  0.0728 -0.2260
10061W        W41277   6.968  12.365   2.935 -0.0175  0.2035 -0.0578
10062W        W41278  19.390   8.856   7.785  0.0366  0.1385  0.0572
10063W        W41279   6.252   6.425   0.482 -0.0585  0.0844  0.1567
10064W        W41280  21.631   6.426   0.716 -0.4351  0.4819  0.2053
10065W        W41281   2.001  20.657   1.673 -0.0366 -0.2395  0.0941
10066W        W41282   3.017  14.373  10.172 -0.0193  0.0872 -0.2842
10067W        W41283  18.705  19.787   8.767  0.2152  0.0736  0.2097
10068W        W41284   7.109   7.672   3.871  0.1687 -0.0110  0.0146
10069W        W41285  22.502  21.555   9.849 -0.0547  0.0756  0.2135
10070W        W41286   4.602  26.954   1.671  0.4266  0.1412  0.0939
10071W        W41287   0.986  16.007   7.284 -0.2407 -0.1720  0.3861
10072W        W41288   5.014   0.426   9.308 -0.1070  0.1415  0.2459
10073W        W41289  23.653   0.795   1.245 -0.0672  0.0373 -0.0034
10074W        W41290   8.611  11.377   7.927 -0.3879 -0.1793  0.0256
10075W        W41291   2.655   8.990   0.875  0.1026 -0.0798  0.0631
10076W        W41292  24.884  23.156   8.207 -0.3980  0.2249 -0.1513
10077W        W41293  14.613  11.377   0.914  0.1680  0.0076  0.0086
10078W        W41294  17.550   1.462   2.208  0.0239  0.4604 -0.0897
10079W        W41295   7.369   4.526   9.621 -0.0800  0.0955  0.3233
10080W        W41296   9.909   9.635   2.207 -0.3107  0.0775  0.1335
10081W        W41297   4.043  16.835   1.769 -0.0809 -0.2818 -0.0798
10082W        W41298  13.960  27.155   3.773  0.1530 -0.3395 -0.2411
10083W        W41299  18.371  23.523   8.381 -0.2190 -0.3501 -0.2419
10084W        W41300  21.712   6.381   7.669 -0.1151  0.2415 -0.2469
10085W        W41301  10.690  26.262   1.205 -0.4209 -0.2697  0.1268
10086W        W41302  22.655  20.662  10.075  0.0088 -0.0323  0.0178
10087W        W41303   5.442  15.724   0.635 -0.0138  0.1581  0.1403
10088W        W41304  22.994  16.530   1.697 -0.0345 -0.0620 -0.0274
10089W        W41305   3.553   6.637  10.008 -0.1788  0.1227  0.3193
10090W        W41306  24.429  16.171   3.154  0.0004 -0.0549  0.0416
10091W        W41307  12.623  19.961   8.728 -0.1742  0.3171 -0.1896
10092W        W41308  20.359  26.479   1.915  0.0086  0.3148  0.1383
10093W        W41309   3.663   1.516   1.099 -0.0819  0.2441  0.0449
10094W        W41310  26.320  17.080   1.074  0.0625 -0.0527  0.0049
10095W        W41311  15.213   2.383   2.150 -0.0331  0.0148  0.1195
10096W        W41312  25.851   4.301   8.970  0.0108 -0.3278  0.2983
10097W        W41313   4.986   3.540   0.248 -0.0611  0.1370 -0.3272
10098W        W41314  24.115  13.919   8.543  0.1392 -0.3194 -0.0546
10099W        W41315   2.479   6.758   0.147  0.0358 -0.1463  0.0767
10100W        W41316  22.126  21.765   7.930 -0.2000  0.0766  0.3956
10101W        W41317   5.218  21.134   8.990  0.1417  0.1251 -0.1031
10102W        W41318  14.061   5.659   3.244  0.0812 -0.0088 -0.1968
10103W        W41319   8.378  21.538   9.008  0.2787 -0.1913  0.1443
10104W        W41320  18.303  21.690   4.226  0.0524  0.1713  0.0337
10105W        W41321   2.234   6.063   8.767  0.1275 -0.1681 -0.0886
10106W        W41322  23.933   2.842   1.832 -0.2602 -0.0570  0.0063
10107W        W41323   9.417   3.886   8.300  0.0180 -0.0545 -0.1313
10108W        W41324  20.054  26.792   2.166  0.1147 -0.2441 -0.1447
10109W        W41325   9.535  17.387   0.765 -0.1987  0.1634 -0.0592
10110W        W41326  23.654   2.356   2.271 -0.0730 -0.1500 -0.1499
10111W        W41327  18.761  21.875   4.366  0.0358  0.2709 -0.2902
10112W        W41328  19.175  10.340   2.576  0.0986  0.1030  0.3351
10113W        W41329   4.003   1.807   1.275 -0.0604  0.0184 -0.1584
10114W        W41330   1.333  12.909   0.900  0.3823 -0.3718  0.0395
10115W        W41331  26.771  16.966   1.286 -0.1857  0.2811  0.2557
10116W        W41332   8.727  23.249  10.406  0.0483  0.2709 -0.0645
10117W        W41333  18.305   5.118   9.115  0.1054 -0.0738 -0.2746
10118W        W41334  20.519  18.968   7.969 -0.1675  0.1760  0.3239
10119W        W41335   0.227  14.192   3.191  0.0985 -0.1424  0.1114
10120W        W41336   4.344  13.541  10.116 -0.0580  0.0503 -0.0197
10121W        W41337   5.680   8.985   0.550  0.0781  0.2535 -0.1812
10122W        W41338  26.413  10.432   2.895  0.2215  0.1088  0.0560
10123W        W41339  11.114  21.467   0.200 -0.3175 -0.3130 -0.2558
10124W        W41340  17.382  21.349   9.118 -0.0561 -0.1905  0.1819
10125W        W41341  13.459  18.596   1.706  0.2915  0.1679  0.2259
10126W        W41342   9.329  12.472   0.789  0.1992 -0.0320  0.1930
10127W        W41343   1.438  13.907   7.541  0.0439 -0.3975  0.0913
10128W        W41344  24.252  14.231   0.230  0.1630  0.4316  0.0224
10129W        W41345  16.365   5.137   0.146  0.0536  0.1979  0.0104
10130W        W41346  26.402  11.585   7.334  0.3964  0.1297 -0.2779
10131W        W41347   8.823  21.781   3.149 -0.0399 -0.2099  0.1330
10132W        W41348  25.490  24.595   9.952  0.2382  0.1012 -0.1669
10133W        W41349  15.840  19.430   8.840 -0.1229  0.2617  0.4463
10134W        W41350  17.198  21.990  10.313  0.0466  0.1837 -0.2800
10135W        W41351   6.338  25.647   0.148 -0.1446 -0.0925 -0.2642
10136W        W41352  12.864  14.021   0.268  0.3566 -0.0553  0.1015
10137W        W41353  15.637  18.050   9.984 -0.0608  0.2598  0.2447
10138W        W41354  15.819   3.592   0.549  0.5377 -0.0223  0.1563
10139W        W41355  10.581  16.865   0.963 -0.3831  0.4138  0.5773
10140W        W41356  21.917  17.704   0.042  0.4411 -0.1819  0.3537
10141W        W41357  25.048  12.583   0.747 -0.1111  0.1107  0.0207
10142W        W41358   3.354   4.667   1.876  0.3879 -0.2908 -0.1616
10143W        W41359   2.689  16.210   7.397 -0.0376 -0.3296  0.1632
10144W        W41360   4.681   2.500  10.362  0.0372  0.0112 -0.0166
10145W        W41361  13.225   7.372   9.801 -0.1515 -0.2002 -0.0523
10146W        W41362   6.862   0.037   2.551  0.0441  0.1943 -0.0483
10147W        W41363  16.650   4.725   0.933 -0.0557  0.1604 -0.0275
10148W        W41364   2.247   9.904   2.967  0.0009  0.1192 -0.1341
10149W        W41365  19.655  11.876   9.486  0.2212 -0.0024  0.2456
10150W        W41366   1.297   7.390   2.932 -0.2355  0.1367 -0.3317
10151W        W41367  17.180   9.873   2.596 -0.1586 -0.1145 -0.0477
10152W        W41368  10.131   5.427   2.248 -0.2801 -0.0890 -0.0871
10153W        W41369  23.035  15.047   1.459  0.2892 -0.1496  0.1377
10154W        W41370  15.224   1.413   8.885 -0.0025 -0.2435 -0.2577
10155W        W41371  12.708  19.805  10.116 -0.0821 -0.0009  0.0631
10156W        W41372   2.525  26.619   7.909 -0.2708  0.3961  0.3887
10157W        W41373   5.721  13.701  10.348  0.0034  0.1142  0.0051
10158W        W41374  17.544   4.860   2.627  0.0686  0.2725  0.0148
10159W        W41375  25.986   0.268   3.010 -0.0100  0.2153 -0.1274
10160W        W41376  25.871  19.876   1.359  0.2077 -0.0937 -0.1730
10161W        W41377   1.482  20.335   0.991 -0.2283  0.0515  0.1253
10162W        W41378  13.138   8.457   2.099  0.0791  0.0437 -0.3207
10163W        W41379  27.277   2.017   2.829  0.3251 -0.4344  0.1561
10164W        W41380  25.335  10.421   3.456  0.1024 -0.0668 -0.1868
10165W        W41381  12.620  26.426   3.012  0.1525  0.0363  0.1171
10166W        W41382  21.059  18.051   3.164 -0.3522 -0.0829 -0.0960
10167W        W41383  20.521   7.737   9.189  0.0943 -0.4690 -0.0247
10168W        W41384  20.897  16.775   8.637  0.0670  0.1176  0.2461
10169W        W41385   9.559  18.034   9.552 -0.1568 -0.1651 -0.2735
10170W        W41386  19.526   3.530   2.131  0.1162  0.1135 -0.1272
10171W        W41387  19.312  14.926   9.580 -0.1679 -0.0985 -0.0250
10172W        W41388   1.273  12.001   9.411 -0.1387  0.0190  0.1626
10173W        W41389  17.792  15.191   0.657  0.1084  0.0706  0.0530
10174W        W41390  15.337   8.332   1.532  0.0932 -0.2563  0.0371
10175W        W41391  12.230   5.824   9.626 -0.0692 -0.0414  0.0388
10176W        W41392   9.704  14.058   1.811 -0.1023 -0.0226  0.0548
10177W        W41393  23.961  26.425  10.242 -0.0408 -0.1390 -0.3167
10178W        W41394  16.605  15.721   3.021 -0.0881 -0.0552  0.2841
10179W        W41395  25.689  17.749   3.391 -0.1525 -0.0516 -0.0294
10180W        W41396  11.540  18.818   7.398  0.4433  0.0414 -0.1117
10181W        W41397  22.173   4.722   0.531 -0.0803 -0.3508 -0.1294
10182W        W41398  21.210  23.516   2.731  0.4573 -0.1843  0.0350
10183W        W41399  13.298  11.893   1.848 -0.0380  0.0940  0.0741
10184W        W41400   9.152   8.157   0.450  0.1523 -0.2886 -0.0904
10185W        W41401  17.294  26.463   8.575  0.1723  0.1977  0.0060
10186W        W41402  24.049  23.755   3.540  0.1453  0.1803 -0.2354
10187W        W41403   5.938   9.313   7.073 -0.0113  0.1946  0.1506
10188W        W41404  26.709  16.816   0.722 -0.3116  0.0485 -0.1062
10189W        W41405   1.746   0.997   1.301 -0.0619 -0.3122 -0.1080
10190W        W41406  15.241   9.812   7.290  0.0096  0.2493 -0.1854
10191W        W41407   2.262   0.479   7.671 -0.0043  0.2961  0.0479
10192W        W41408   2.688   2.202   9.981 -0.0881  0.0118  0.1392
10193W        W41409   5.915  23.586   2.998 -0.0909  0.0021 -0.1423
10194W        W41410   1.132  12.820   9.564  0.1173  0.0521 -0.1775
10195W        W41411  14.896  23.816  10.454  0.1519  0.1904 -0.0658
10196W        W41412   6.917   9.061   0.356 -0.0583  0.0367 -0.0012
10197W        W41413  13.673  18.177   2.257  0.0695 -0.1166 -0.1322
10198W        W41414  26.960  24.048   1.313  0.0295 -0.1822 -0.1999
10199W        W41415   2.731   9.241  10.077 -0.0167 -0.0066 -0.4874
10200W        W41416  15.294  27.046   2.847 -0.1588  0.0861  0.3083
10201W        W41417  26.454  17.817   1.172  0.2840  0.1330 -0.0334
10202W        W41418  27.024  12.571   1.865 -0.0967 -0.1387 -0.1116
10203W        W41419   4.751   2.668   0.303 -0.1145  0.1083 -0.3093
10204W        W41420  19.211   0.325   2.645  0.2707  0.1630  0.0073
10205W        W41421  18.607  21.602   2.868  0.0810  0.1621  0.0276
10206W        W41422   9.803  13.148   9.261  0.0757  0.0553  0.2371
10207W        W41423   1.267  16.633   2.276  0.2280  0.2614 -0.0438
10208W        W41424   2.242  20.041   2.524  0.1069 -0.0941  0.2340
10209W        W41425  21.775  18.783   0.290  0.0853 -0.0583 -0.1541
10210W        W41426  10.050   7.051   2.681 -0.0349  0.1305  0.1525
10211W        W41427   9.883  17.673   3.081 -0.0899 -0.0600 -0.2414
10212W        W41428   2.100  14.565   1.655  0.2214 -0.1745 -0.1057
10213W        W41429   3.395  24.908   2.742  0.0738 -0.1769  0.3253
10214W        W41430  18.609  11.519   3.285  0.3929  0.0695 -0.2038
10215W        W41431  22.963  24.006   0.615  0.0650 -0.1847 -0.2616
10216W        W41432   6.247   5.412   2.050  0.2086 -0.0690  0.2200
10217W        W41433  19.776  24.089   2.978 -0.0806  0.0422  0.2791
10218W        W41434   7.987   6.008   3.137  0.2159 -0.0954 -0.1553
10219W        W41435  18.159   0.787   0.867  0.0657  0.2073 -0.1516
10220W        W41436  22.175  13.241   2.916  0.4390  0.0258 -0.1992
10221W        W41437  23.673  19.563   8.221 -0.1976  0.2556 -0.1657
10222W        W41438   3.482  16.991   2.171 -0.0815  0.2100 -0.0852
10223W        W41439  11.838  18.202   3.088  0.2468  0.0126 -0.1516
10224W        W41440  10.820   7.474  10.325  0.1141  0.2693  0.0467
10225W        W41441  10.093   5.062   9.875  0.0453  0.0213 -0.0839
10226W        W41442  17.309   0.523   2.944 -0.0638 -0.0685 -0.2106
10227W        W41443  22.125   3.181   2.940  0.0585 -0.1769  0.1271
10228W        W41444   0.399  21.644   7.992  0.0357  0.0131 -0.1072
10229W        W41445  23.586   7.959   1.193 -0.0519  0.3635  0.1616
10230W        W41446  23.049  21.230   8.382 -0.0846 -0.2009 -0.3100
10231W        W41447  20.075   8.280   1.270 -0.1172  0.0501 -0.1772
10232W        W41448   1.758  10.550   9.614  0.0962  0.1210 -0.1057
10233W        W41449   4.515  23.470   2.438  0.2163 -0.1543  0.1004
10234W        W41450   6.415  10.141   9.159  0.1035 -0.0236 -0.2444
10235W        W41451  21.446  24.509   3.475  0.2728  0.0250  0.1901
10236W        W41452  15.909  23.495   3.156  0.0992 -0.1941 -0.0377
10237W        W41453  27.205   0.126   0.011 -0.0307  0.1223  0.0174
10238W        W41454   2.150  19.653   1.087 -0.2045  0.3241 -0.2311
10239W        W41455  25.703   1.928   8.247  0.0414 -0.0614  0.2269
10240W        W41456  17.670   1.754   1.131  0.1553 -0.2101  0.0439
10241W        W41457  17.769   7.547   1.402 -0.1156 -0.1912 -0.1997
10242W        W41458  19.508   1.667  10.096 -0.0100  0.0942  0.0377
10243W        W41459  12.273  14.634   1.618  0.1787 -0.0943  0.0902
10244W        W41460  15.342  21.391   2.515 -0.1406  0.3453  0.1729
10245W        W41461  21.814  19.727   9.703  0.0119 -0.0697 -0.3378
10246W        W41462  17.720  18.525   0.688  0.3340 -0.3891 -0.1381
10247W        W41463  13.926   1.978   3.611 -0.1882  0.0023 -0.0818
10248W        W41464  19.550  17.934   9.975 -0.2666 -0.2393 -0.0083
10249W        W41465   7.062  26.364   1.949  0.0544 -0.1874  0.0943
10250W        W41466   8.684  11.075   0.054  0.1534  0.1848  0.0773
10251W        W41467  26.157   3.753  10.229  0.0636  0.0270 -0.1582
10252W        W41468  16.106  13.977   2.635 -0.0953  0.3364  0.0864
10253W        W41469   5.239  20.374   1.959 -0.1507  0.1403  0.1865
10254W        W41470  26.892  25.869   1.734  0.3273 -0.0510 -0.0246
10255W        W41471  17.913   4.502   2.742  0.1938 -0.1448 -0.1304
10256W        W41472  11.513   9.968   9.328 -0.2061  0.0488  0.0270
10257W        W41473  10.895  14.658   0.499 -0.0297  0.3299  0.1865
10258W        W41474   2.686   0.133   2.434  0.0714  0.3912 -0.0597
10259W        W41475  20.517   0.791   9.578 -0.1671  0.1645  0.0061
10260W        W41476  16.878  15.420   7.981  0.1836 -0.1365  0.0620
10261W        W41477  20.961   7.590  10.459 -0.4723 -0.0171 -0.1419
10262W        W41478   3.972  13.044   0.470 -0.2464  0.2061 -0.3146
10263W        W41479  16.044   9.593   9.888  0.1335 -0.3916  0.0933
10264W        W41480  18.634  11.529   1.303 -0.0418 -0.2905 -0.1588
10265W        W41481  17.624   9.791   9.353 -0.1934  0.1778 -0.0241
10266W        W41482   1.847  12.184   2.741 -0.1718 -0.0608  0.1884
10267W        W41483  14.140   9.029   8.707 -0.2322  0.0629  0.1565
10268W        W41484   9.997  27.398   1.704  0.0030 -0.1980  0.1049
10269W        W41485  25.693   3.770   3.494 -0.3399  0.2466  0.1181
10270W        W41486  12.565  23.361  10.432  0.0879 -0.1803 -0.2805
10271W        W41487  18.572  12.882   8.458  0.0711 -0.2409  0.0197
10272W        W41488  11.052   0.601   8.971  0.0325  0.1539  0.0571
10273W        W41489  26.949  24.415   2.710 -0.1506  0.2638 -0.0185
10274W        W41490  24.915  19.918   0.494  0.0271 -0.1245 -0.0546
10275W        W41491  26.927   1.485   0.809 -0.2653 -0.1397 -0.4548
10276W        W41492  19.106  12.483   7.632 -0.1064 -0.0310 -0.0500
10277W        W41493  23.305  20.903   9.006 -0.1663 -0.3756 -0.0293
10278W        W41494   9.790   7.784   8.760 -0.0441 -0.0334 -0.0872
10279W        W41495   7.638  24.892   8.290  0.3525  0.1795 -0.0314
10280W        W41496   7.216   3.107   1.229  0.1786 -0.2226 -0.3840
10281W        W41497  17.402  11.996   0.583 -0.2187  0.0968  0.1408
10282W        W41498  21.949   0.182   9.584 -0.3061 -0.0668  0.3892
10283W        W41499  11.671  14.906  10.461 -0.4732  0.1005 -0.3586
10284W        W41500   2.914   1.669   8.461  0.1249  0.1427 -0.3995
10285W        W41501   2.179   2.869   8.357 -0.2400 -0.0850  0.2161
10286W        W41502  18.323  15.079   2.850  0.2153 -0.0917 -0.0368
10287W        W41503   4.780  27.579   0.870  0.1278 -0.1581 -0.3707
10288W        W41504  22.545  13.727   1.443  0.0810  0.1695 -0.0258
10289W        W41505  13.140   8.846   0.432 -0.0952  0.4917  0.3423
10290W        W41506   0.003  26.590   3.570  0.0902  0.4557 -0.3204
10291W        W41507   0.751  19.093   9.464  0.0491  0.1726  0.1087
10292W        W41508   6.100  17.121   2.735 -0.2667  0.0106  0.1763
10293W        W41509   1.954  21.239   0.042  0.1368  0.2110 -0.1492
10294W        W41510  14.515  17.145   8.678  0.4327  0.3724 -0.1964
10295W        W41511  26.107  22.488  10.175  0.0235 -0.3115  0.0243
10296W        W41512  21.161   8.701   8.626  0.1043 -0.3339 -0.1499
10297W        W41513   7.746  26.495   8.378  0.2867  0.3799  0.0938
10298W        W41514  20.388  23.575   0.763 -0.1210 -0.0141  0.1681
10299W        W41515  27.119   4.689   3.153 -0.0211 -0.0222 -0.0804
10300W        W41516   1.727   7.000  10.450 -0.0304  0.1169  0.1383
10301W        W41517  18.116   3.807   9.899  0.0418 -0.1725 -0.1659
10302W        W41518   1.505   6.921   2.103  0.0714 -0.1686 -0.0689
10303W        W41519   1.471   3.823   1.322 -0.0880  0.1188 -0.1829
10304W        W41520   4.407   1.289   0.470 -0.0148 -0.0492 -0.2664
10305W        W41521  12.956  24.507   9.542 -0.1625  0.0224  0.0089
10306W        W41522  11.544  24.882   0.989 -0.2659 -0.3133 -0.2541
10307W        W41523  22.960   6.603   0.803  0.1326  0.0233 -0.1939
10308W        W41524  26.107   7.070   9.698  0.0181  0.1919  0.3845
10309W        W41525   1.587   5.942   0.772  0.0043 -0.0935 -0.0834
10310W        W41526   0.862   5.991   7.841  0.0467 -0.1544  0.3355
10311W        W41527  17.780  13.887  10.398 -0.1202 -0.1023  0.0353
10312W        W41528  16.811  27.552   2.696  0.1438  0.0725  0.1742
10313W        W41529  21.557  10.625   7.988 -0.0339 -0.0015  0.1121
10314W        W41530  10.331  19.720   3.759  0.0479 -0.0632 -0.0142
10315W        W41531  24.903   3.886   1.527 -0.0021  0.0153 -0.4096
10316W        W41532   1.742  11.424   8.521  0.2036  0.1585  0.5678
10317W        W41533   0.748   4.969   1.247 -0.3255 -0.2354 -0.2227
10318W        W41534   3.994   4.627   0.512  0.0439 -0.0389  0.1564
10319W        W41535  15.961  17.503   0.808  0.2161 -0.1995 -0.1350
10320W        W41536  19.621  21.383   8.698 -0.0662  0.0357 -0.0422
10321W        W41537  12.898   0.740   7.618  0.1742 -0.2208 -0.2666
10322W        W41538   8.372  26.341   8.675  0.0375 -0.2164  0.2091
10323W        W41539  12.105   7.232   8.340 -0.0432 -0.0533  0.0860
10324W        W41540   8.672   9.978   3.115 -0.0559 -0.0029  0.0734
10325W        W41541   0.474   1.078   7.818  0.0285  0.1303  0.1374
10326W        W41542  10.506   7.811   7.630 -0.0653 -0.1322 -0.0045
10327W        W41543   3.600   3.899   8.611 -0.1647 -0.0024 -0.4398
10328W        W41544   1.801  23.745   3.335  0.2033 -0.0599  0.0138
10329W        W41545  27.543  10.322   2.214  0.1245 -0.1699 -0.0347
10330W        W41546  16.925  22.682   2.873  0.2563  0.1240  0.1620
10331W        W41547  13.341   7.933   2.290 -0.4809  0.4051  0.2296
10332W        W41548  20.640   3.395   3.539  0.3576  0.1133 -0.4286
10333W        W41549   1.160   2.801   1.622  0.0352  0.0016 -0.2529
10334W        W41550  20.141  22.612   2.546  0.0035 -0.2401  0.0650
10335W        W41551  22.018   1.996   8.689 -0.2279 -0.2390  0.0671
10336W        W41552  16.173   3.585   9.222  0.1497 -0.1091 -0.1231
10337W        W41553  24.313   9.338  10.424  0.0314  0.4625 -0.0624
10338W        W41554   6.494  13.046   1.980  0.0714  0.1429  0.0628
10339W        W41555  18.943   2.218  10.433 -0.0572 -0.0504  0.1983
10340W        W41556  24.873  23.578  10.214  0.1575 -0.3804 -0.0268
10341W        W41557   9.892  25.150   3.707  0.1031 -0.1345 -0.1421
10342W        W41558  24.046  17.051   7.371  0.0381  0.0682 -0.2585
10343W        W41559   4.911  17.503   1.540  0.0272 -0.0508  0.2566
10344W        W41560   0.020   1.640   9.303 -0.0599 -0.1088  0.1328
10345W        W41561  24.940   8.378   1.896  0.3329 -0.0477 -0.0485
10346W        W41562  15.578  17.548   9.102 -0.0671  0.0637  0.0559
10347W        W41563   2.750  22.579   9.939 -0.1564 -0.0993  0.0708
10348W        W41564  10.965   5.372   8.056  0.2418  0.0011 -0.3603
10349W        W41565  26.533   1.400   9.516  0.0372 -0.0582  0.0582
10350W        W41566  23.416  20.974   3.729 -0.2284 -0.2995 -0.0131
10351W        W41567  15.774  20.161  10.409  0.1126  0.1563  0.1468
10352W        W41568   3.649  13.261   0.181  0.2198  0.2583 -0.1057
10353W        W41569  26.715  11.690   1.292 -0.1181 -0.2247 -0.1919
10354W        W41570  11.403  19.682   9.214 -0.0336 -0.0159  0.2259
10355W        W41571  17.970  14.232   8.879  0.0754 -0.0373 -0.2132
10356W        W41572  13.631  12.571   2.832 -0.0923  0.0071  0.1235
10357W        W41573  26.843  26.335   8.959  0.0595  0.0570  0.1193
10358W        W41574   4.338  18.451   2.356 -0.0651  0.0701 -0.0216
10359W        W41575  20.662   0.998   9.094  0.0330 -0.0112 -0.3012
10360W        W41576  16.232  23.305   7.664 -0.1975 -0.0688 -0.1309
10361W        W41577  22.220  12.792   7.732 -0.1332 -0.1833 -0.0599
10362W        W41578  12.936  10.412  10.414  0.1489  0.0560  0.2370
10363W        W41579   1.148  10.872   0.693 -0.2325  0.1280  0.2783
10364W        W41580   8.797  26.753   1.247 -0.3592  0.4589  0.2356
10365W        W41581  12.626  13.878   0.701  0.2858  0.0449  0.0571
10366W        W41582  22.128  10.851   2.518 -0.0602  0.2458  0.1551
10367W        W41583  16.671  20.215   3.568 -0.0678  0.0407  0.3685
10368W        W41584  13.867  17.321   3.531 -0.2454 -0.3229 -0.1165
10369W        W41585  14.149   5.324  10.226  0.0268  0.0437  0.2781
10370W        W41586   3.116  25.990   0.067 -0.2064 -0.1069  0.1127
10371W        W41587  16.804  19.164   8.138 -0.0365  0.2114 -0.1763
10372W        W41588  16.138   3.412   2.805  0.1571 -0.1130 -0.2836
10373W        W41589   6.185  14.461   7.054 -0.0561 -0.0965 -0.0479
10374W        W41590  27.518  24.884   0.836  0.2174 -0.3831 -0.1015
10375W        W41591  15.990   0.306   2.743 -0.1166  0.1650  0.0098
10376W        W41592  22.562  15.926   7.156  0.2375  0.1221 -0.3986
10377W        W41593   2.031  18.871   0.576  0.0950 -0.0944 -0.3338
10378W        W41594  10.648   6.292  10.226  0.2467  0.1018  0.0535
10379W        W41595  24.792  26.782   8.299 -0.3525  0.4043  0.1087
10380W        W41596   6.909   6.913   0.735  0.1175 -0.4558 -0.0049
10381W        W41597  21.725   1.080   8.422  0.1629 -0.1520  0.1078
10382W        W41598  11.328  18.015   0.308  0.3165  0.1508  0.0292
10383W        W41599  27.497  17.911   8.664  0.3176  0.0287  0.1935
10384W        W41600  16.423   1.331   0.631 -0.1938  0.3960 -0.2506
10385W        W41601  15.441  21.681   0.192  0.2555  0.2060  0.1269
10386W        W41602   3.782   5.837   9.662  0.0922 -0.1265  0.1682
10387W        W41603   0.705   7.077   8.640 -0.0521  0.3739 -0.0875
10388W        W41604  10.743  20.611   8.995 -0.0414  0.0804 -0.3693
10389W        W41605  16.158   5.603  10.121  0.1543 -0.1397  0.1873
10390W        W41606  25.852   0.288   2.105 -0.1481  0.0896 -0.0283
10391W        W41607  13.925  22.144   3.357  0.2265 -0.1207 -0.3710
10392W        W41608  27.303   2.809   3.217  0.0498  0.2134 -0.2486
10393W        W41609  20.950  16.385   2.129  0.0395 -0.2808  0.0993
10394W        W41610  22.058  15.644   0.992  0.1226 -0.0782 -0.3574
10395W        W41611  24.753  14.211  10.025 -0.4622  0.3446 -0.2895
10396W        W41612  13.739  20.491   8.232  0.3345  0.0924  0.0774
10397W        W41613  18.532  16.801   0.146  0.1105  0.1221  0.0896
10398W        W41614   5.625  24.943   7.719 -0.4191 -0.1754 -0.1531
10399W        W41615  26.273  16.447   9.156 -0.2320 -0.2136  0.1096
10400W        W41616  14.477  21.054   8.419 -0.1651  0.3068  0.1811
10401W        W41617   4.075  16.439   9.362 -0.2130 -0.1376 -0.1305
10402W        W41618  27.381  25.801   2.352  0.1427 -0.0169  0.0805
10403W        W41619  19.303  26.943   8.484 -0.2059 -0.1210 -0.0151
10404W        W41620  16.320   6.584   9.206 -0.1174  0.1490  0.3195
10405W        W41621  11.894  20.089   0.028  0.1998 -0.0902 -0.1882
10406W        W41622   6.306  12.824   1.481  0.1321 -0.1013  0.4815
10407W        W41623  23.990   2.570   9.227  0.0741 -0.1107 -0.0344
10408W        W41624   5.263   6.572   1.121  0.0149 -0.0411  0.0324
10409W        W41625  10.451   6.628   8.216 -0.3596 -0.2724 -0.1169
10410W        W41626   2.404  11.948   3.026  0.0739  0.4292 -0.0996
10411W        W41627  12.093   6.419   8.864  0.0623 -0.0911 -0.2250
10412W        W41628   4.420  21.352   1.128  0.0699  0.0344  0.0048
10413W        W41629   6.781   0.054   0.506  0.0974  0.2163  0.4235
10414W        W41630   8.675  24.412   1.132  0.1107  0.0536 -0.0657
10415W        W41631  19.278   5.783   1.444  0.3915 -0.0598  0.1357
10416W        W41632  22.655  19.065   0.230  0.0892  0.4475 -0.0579
10417W        W41633  21.764  13.922   7.722 -0.1637 -0.2265 -0.0980
10418W        W41634  16.403  14.092   9.819  0.2338 -0.0789  0.1945
10419W        W41635  21.215  20.345   3.486 -0.2478 -0.1796 -0.2975
10420W        W41636   7.378   5.482   8.611 -0.2086  0.0564  0.0181
10421W        W41637   7.474   3.207   2.130  0.2118 -0.0948 -0.0769
10422W        W41638   1.100  15.049   1.182  0.1420  0.1626 -0.1629
10423W        W41639  23.463  23.857   0.703  0.1958 -0.4423  0.1202
10424W        W41640  19.417  25.824   3.256 -0.0404  0.0833  0.4657
10425W        W41641  16.414   6.973  10.050 -0.1857  0.5409  0.0098
10426W        W41642   1.216  10.063  10.183 -0.0456  0.3753  0.0360
10427W        W41643  26.548  27.577   9.501 -0.2607  0.1818 -0.0439
10428W        W41644  12.455  12.098   9.104  0.0545 -0.1019 -0.1537
10429W        W41645  13.672  21.201   2.558 -0.1964 -0.1369 -0.2552
10430W        W41646  25.912  13.157   7.776 -0.1694  0.2010  0.2142
10431W        W41647  20.396  26.783   1.512  0.0190 -0.0487 -0.2121
10432W        W41648  26.906  23.042   0.205 -0.1108 -0.0675  0.2527
10433W        W41649  25.488  11.694   2.997 -0.1104 -0.1275 -0.0044
10434W        W41650  18.580  11.203   1.701 -0.1509 -0.0717 -0.2414
10435W        W41651  16.061   7.666   1.288  0.3381  0.1127  0.3123
10436W        W41652   1.357  19.045   2.065 -0.3274 -0.1653  0.0810
10437W        W41653  26.443  14.417   9.679 -0.0113 -0.0984  0.1624
10438W        W41654   5.185   5.725   3.387 -0.0191 -0.0314 -0.0463
10439W        W41655  19.506   2.556   1.243  0.1795 -0.3401 -0.1589
10440W        W41656  19.967  19.512   9.109  0.0092  0.3569  0.0514
10441W        W41657  24.290  11.356  10.042 -0.2717 -0.0900 -0.1771
10442W        W41658   5.847  22.400   0.423  0.3808 -0.3124  0.1409
10443W        W41659   7.235  20.098   9.177  0.0852  0.2138 -0.1365
10444W        W41660  21.877   0.234   7.760  0.2104 -0.1025 -0.1998
10445W        W41661  12.109  23.153   1.426  0.0400  0.0149 -0.1481
10446W        W41662  26.892  17.772   9.923 -0.0735  0.2726  0.0261
10447W        W41663  11.319   1.888   0.499  0.1449 -0.1307 -0.1078
10448W        W41664   9.845  14.877   2.624 -0.2411 -0.0204 -0.0457
10449W        W41665   7.737  17.858   0.975 -0.0419  0.1867  0.2730
10450W        W41666  27.024  25.397   1.442  0.3432  0.1700  0.0167
10451W        W41667   6.352  19.010   1.918  0.0636 -0.1324 -0.0923
10452W        W41668  24.294  12.439   9.047 -0.2408  0.0379 -0.2746
10453W        W41669  14.657   0.843   9.156  0.0158 -0.1215 -0.1489
10454W        W41670   5.122  16.173   0.563 -0.0785  0.0295  0.1178
10455W        W41671   7.275  21.625   3.977  0.0274 -0.0511 -0.1442
10456W        W41672  17.821  12.503   0.984 -0.0240 -0.1052 -0.0479
10457W        W41673   1.425   0.707   2.190 -0.2172 -0.1935 -0.1635
10458W        W41674   5.610  12.368   2.743  0.1426  0.0179 -0.1870
10459W        W41675   3.329   4.218   8.177 -0.2367  0.0231 -0.0829
10460W        W41676  12.433  16.567  10.160 -0.0519  0.1201 -0.0242
10461W        W41677  14.379   6.487   8.483 -0.0961  0.1442 -0.0474
10462W        W41678   7.897  14.393   9.844  0.0263 -0.0146  0.1721
10463W        W41679   6.290   2.271   3.004  0.1100  0.0686 -0.0421
10464W        W41680  21.778   1.529   1.343 -0.1858  0.0318 -0.4015
10465W        W41681  13.904   9.002   1.100  0.0786  0.2509 -0.0483
10466W        W41682   7.826  23.941   9.331  0.2071  0.0782  0.2461
10467W        W41683   5.528  16.364   9.215 -0.0538 -0.1613 -0.1782
10468W        W41684  11.039  18.408   7.943 -0.4171  0.2734 -0.3095
10469W        W41685  12.484  21.502   1.879  0.2809 -0.0276  0.0432
10470W        W41686  11.627  24.925   1.945 -0.1402  0.1299  0.1030
10471W        W41687  12.407  14.227  10.424 -0.0248 -0.2498  0.2020
10472W        W41688  21.751  12.927   2.413 -0.0714 -0.0851 -0.0951
10473W        W41689  23.055  17.849   0.466 -0.0252 -0.0500 -0.0473
10474W        W41690  20.663  11.726   7.595 -0.0468  0.0026 -0.2239
10475W        W41691   1.419  14.635   3.546 -0.0409 -0.3312  0.3731
10476W        W41692  13.692  11.345   9.404 -0.0245 -0.3222  0.2868
10477W        W41693  23.127  22.606   1.295 -0.4177 -0.1617  0.2771
10478W        W41694  15.390   2.051  10.293  0.1177 -0.0917  0.1698
10479W        W41695  15.369  10.492  10.403 -0.0805  0.1744 -0.1646
10480W        W41696   8.349  17.914   3.105 -0.2199 -0.0385  0.2323
10481W        W41697   2.258  12.644   0.083  0.0538 -0.1013  0.0089
10482W        W41698  25.329  14.805   6.984 -0.1261 -0.0519  0.2431
10483W        W41699  10.920  23.064   3.014  0.2013  0.1258 -0.1068
10484W        W41700  24.999  24.790   0.943  0.4653 -0.0987  0.1494
10485W        W41701  13.260  19.556   1.364  0.0677 -0.0159 -0.0308
10486W        W41702   2.299   5.429   3.424 -0.0140 -0.0868  0.2190
10487W        W41703  13.897   4.087   8.948  0.0565 -0.3975  0.0559
10488W        W41704  13.455  10.615   1.226  0.2047 -0.1349  0.2738
10489W        W41705   2.015  18.341   2.304 -0.0523  0.1177 -0.1333
10490W        W41706  14.744  24.026   8.393 -0.0367  0.2806  0.2499
10491W        W41707  15.904  11.664   3.697 -0.0331  0.4636  0.0674
10492W        W41708  20.348  20.488   2.702 -0.2119 -0.0689 -0.1082
10493W        W41709   1.229   3.975   8.458  0.1377 -0.0773  0.0348
10494W        W41710  10.360  17.385   0.699  0.3747  0.0359  0.1447
10495W        W41711  24.577  13.775  10.079 -0.0718 -0.0568  0.2549
10496W        W41712  23.632  11.812   1.204  0.1016  0.1712  0.2119
10497W        W41713  27.597  21.309   9.897 -0.1415 -0.3182  0.0745
10498W        W41714  18.203  27.096   2.625  0.2854 -0.1474 -0.3098
10499W        W41715   4.887  24.213   0.435  0.1482  0.2035 -0.4602
10500W        W41716  14.342  25.481   0.062 -0.1108  0.0198 -0.0366
10501W        W41717  19.853  11.935   8.752 -0.0001  0.2280  0.3640
10502W        W41718  18.354   2.392   7.923  0.0410  0.1225 -0.0391
10503W        W41719  22.408   1.612   1.956 -0.0201 -0.3552  0.0061
10504W        W41720  27.161  18.084   2.053 -0.0311  0.0100  0.1575
10505W        W41721   2.303  19.244   1.896 -0.2299  0.0956 -0.1106
10506W        W41722   3.206  13.782   8.105  0.1829  0.0313  0.1759
10507W        W41723   6.289   8.573   7.986 -0.1428 -0.4890  0.0942
10508W        W41724  14.759  25.148   3.749 -0.1009  0.0884  0.0512
10509W        W41725   4.282   8.481   0.451  0.2841 -0.2846  0.1672
10510W        W41726  15.369  21.455   8.590 -0.1788 -0.1189  0.3012
10511W        W41727   5.767  21.226   8.433  0.3709  0.0636 -0.2364
10512W        W41728   7.068   5.927   3.009  0.1883 -0.1342  0.4578
10513W        W41729   4.324  11.533   0.142  0.1596  0.0770 -0.2714
10514W        W41730  10.132   1.041   0.600  0.1083  0.4471 -0.0549
10515W        W41731  23.946  10.669   7.401  0.1351 -0.4603  0.1086
10516W        W41732  24.622  22.185   0.277 -0.1578 -0.2657 -0.3136
10517W        W41733  21.829  13.685  10.167  0.2167  0.3274  0.2202
10518W        W41734  15.044  18.009   7.821  0.1181  0.1549  0.5187
10519W        W41735  22.927   2.665  10.134  0.0251 -0.3641  0.0257
10520W        W41736  12.039   0.859   3.627 -0.0302 -0.1754 -0.4104
10521W        W41737  25.514   1.870   2.832 -0.1728 -0.1791 -0.2021
10522W        W41738   3.852   2.075   2.384 -0.1297 -0.0510 -0.0545
10523W        W41739   8.926  14.530   9.094  0.1611 -0.3154  0.3703
10524W        W41740  25.784   8.293   8.858  0.0026  0.1027 -0.0875
10525W        W41741  10.537  16.471   1.826  0.0923  0.0884  0.0689
10526W        W41742  10.209  24.654   2.346 -0.2689 -0.4550  0.1304
10527W        W41743  13.356  19.397   2.331  0.0550  0.1738 -0.0078
10528W        W41744  11.591  16.731   1.909 -0.1015 -0.0344  0.1763
10529W        W41745  11.188  19.193   9.600 -0.3571 -0.1519 -0.3126
10530W        W41746   1.672  24.943   2.525  0.0867  0.1416 -0.0178
10531W        W41747  12.895   8.773   4.213 -0.1936 -0.2493 -0.0596
10532W        W41748  10.553  15.412   7.321  0.0548  0.0256  0.0019
10533W        W41749  11.867  13.864   9.677  0.0376  0.3118 -0.2071
10534W        W41750   3.631   9.955   8.754  0.1471  0.0850  0.0367
10535W        W41751  23.634  17.307   0.838  0.0591 -0.0222  0.0211
10536W        W41752  12.022  15.037   1.378 -0.0777  0.0040 -0.1795
10537W        W41753   1.516  15.742   9.333  0.2185 -0.2042 -0.1505
10538W        W41754   8.372  11.151   9.199  0.1749 -0.2695 -0.1094
10539W        W41755   7.706   8.068   9.131 -0.0265  0.2981  0.0930
10540W        W41756  20.170  22.355   9.339 -0.0782  0.1948  0.1141
10541W        W41757  16.864   0.196   1.091 -0.3522  0.1648  0.1627
10542W        W41758  16.522  19.437   2.139  0.0852  0.0134 -0.3546
10543W        W41759  20.205  12.552   1.110 -0.1060 -0.2111  0.2840
10544W        W41760   9.065  20.725   1.284 -0.1761 -0.0677  0.0397
10545W        W41761  18.621  16.719   0.677  0.0843  0.3046 -0.0411
10546W        W41762   1.146   3.419   8.534  0.1400  0.1065  0.1327
10547W        W41763  20.835  17.273   3.751 -0.0915  0.2470 -0.0423
10548W        W41764  21.728  20.762   8.511 -0.0122 -0.2134 -0.0249
10549W        W41765  10.828  15.666   8.690 -0.2907 -0.3829 -0.0604
10550W        W41766  24.294  12.045   3.783 -0.0945 -0.1779  0.1809
10551W        W41767  14.770   7.205   2.902  0.2980 -0.0275 -0.1753
10552W        W41768  22.070  25.762   1.789 -0.3285  0.1485  0.0113
10553W        W41769  18.885   4.394   7.420 -0.3961  0.0760 -0.2215
10554W        W41770   8.078  22.616   0.372  0.1173  0.0384 -0.1043
10555W        W41771  19.773   0.696   1.046  0.0242 -0.2678 -0.0449
10556W        W41772  10.706   5.129   0.270  0.0825  0.3127  0.0952
10557W        W41773  26.564   3.623   8.509 -0.2462 -0.0727 -0.0120
10558W        W41774   0.276  23.689   3.425  0.0726  0.0098  0.1397
10559W        W41775  22.491  17.012   0.425  0.1396  0.0436 -0.0955
10560W        W41776   6.738   7.325   8.421 -0.1472  0.2097 -0.1816
10561W        W41777   7.802   6.188   2.632 -0.2668  0.0816  0.1911
10562W        W41778  14.356  14.661   2.950  0.2511  0.4702 -0.0485
10563W        W41779  18.750   0.908   2.861  0.0765 -0.1756  0.1210
10564W        W41780  11.679   6.040   7.752  0.0393  0.1776  0.0738
10565W        W41781  10.666  23.508   3.447  0.1979 -0.0753  0.0147
10566W        W41782  17.498  10.777   2.230 -0.0393 -0.2063  0.1771
10567W        W41783  13.188  14.903   8.934 -0.2221  0.3131 -0.1589
10568W        W41784  24.970   3.633   1.946 -0.0346  0.0574  0.2128
10569W        W41785  12.960  15.014   0.469  0.0685  0.0405 -0.5797
10570W        W41786   7.989   0.874   2.206  0.3255  0.0489 -0.2313
10571W        W41787  14.920   8.576   8.026  0.1649 -0.1879  0.0991
10572W        W41788  19.312   0.882   9.371 -0.0050  0.1389 -0.4162
10573W        W41789  13.972  13.450   2.632  0.3022 -0.0332  0.1225
10574W        W41790   4.786  26.291   2.245 -0.2901 -0.1523 -0.3219
10575W        W41791  22.821  23.537   8.587 -0.0382  0.1876 -0.2040
10576W        W41792   5.281  25.660   0.372  0.0718  0.1217  0.3837
10577W        W41793  23.100   2.366   8.234 -0.0467  0.2045 -0.1777
10578W        W41794  14.627   6.161  10.241  0.0466 -0.0592 -0.0811
10579W        W41795  14.442   1.118   8.365 -0.0027  0.3711 -0.1530
10580W        W41796  27.288  20.463   0.002  0.2206 -0.0993  0.0996
10581W        W41797  11.661  27.312   0.434  0.1924 -0.0238 -0.1248
10582W        W41798  14.533   0.143   1.558 -0.0793 -0.2752 -0.2500
10583W        W41799   3.906  14.822   0.432  0.4542 -0.0114 -0.1682
10584W        W41800   7.829  23.833   1.972 -0.0350  0.0126  0.2063
10585W        W41801  20.030  18.861   0.562  0.2516 -0.1360 -0.1070
10586W        W41802  24.362  12.563   8.576  0.1220  0.0123  0.4369
10587W        W41803   7.298  22.159   9.145  0.1068  0.1771 -0.0948
10588W        W41804  24.178  21.452   0.353  0.0100 -0.2951 -0.0581
10589W        W41805  16.548  19.775   2.517  0.3538  0.2125 -0.1310
10590W        W41806  11.676  11.862   9.712 -0.1783  0.0378  0.2100
10591W        W41807   7.302   8.907   9.823 -0.0325  0.1864  0.4453
10592W        W41808   3.626  17.132   9.601  0.0599 -0.0588 -0.1431
10593W        W41809  20.563   0.178   8.572 -0.2722  0.4957 -0.0059
10594W        W41810   6.868  25.587   8.296 -0.1778 -0.0490 -0.2061
10595W        W41811  14.955  12.699   2.855 -0.1170 -0.2584  0.2405
10596W        W41812  26.033  18.290   8.168  0.3881  0.3694  0.0147
10597W        W41813   3.815  11.199   9.520  0.0652  0.1187 -0.0856
10598W        W41814  21.275   9.782   2.286 -0.0795  0.3140  0.0751
10599W        W41815  10.593  25.506   2.543 -0.1749 -0.0779 -0.3388
10600W        W41816   8.416   7.943   8.559  0.0293 -0.0100 -0.0055
10601W        W41817   7.353  24.452   8.981 -0.1995  0.0986 -0.2685
10602W        W41818  15.682   7.629   9.881  0.0083 -0.0014  0.0151
10603W        W41819  18.793   7.105   9.313 -0.3333  0.1390 -0.3904
10604W        W41820  10.170  23.386   9.082 -0.1757  0.2336 -0.3584
10605W        W41821  22.537   1.105  10.285 -0.2594  0.3346 -0.2822
10606W        W41822  19.680   2.126   0.585 -0.1443 -0.3077  0.0714
10607W        W41823  15.706  16.152   1.123 -0.0883  0.1111  0.3051
10608W        W41824   7.934  15.891   3.639  0.0466  0.0216  0.2772
10609W        W41825   3.131  21.271   9.710 -0.0357 -0.1719 -0.1972
10610W        W41826  22.151  10.482   8.698  0.0711  0.0621  0.0393
10611W        W41827   6.329   1.157   9.066  0.0281 -0.2911  0.4865
10612W        W41828  17.250  11.197   2.648 -0.1580  0.0597 -0.0048
10613W        W41829   4.279  14.598   8.540 -0.2336 -0.0173 -0.0998
10614W        W41830  17.400  15.012   0.954 -0.1427  0.1013  0.0882
10615W        W41831  22.333  13.775   0.985  0.2002 -0.0749  0.0190
10616W        W41832   3.307  12.944   1.930 -0.3116  0.1467 -0.0846
10617W        W41833  16.097  24.188   9.860  0.0535 -0.0495  0.1432
10618W        W41834   2.179  18.744   1.974 -0.0997 -0.4320  0.0152
10619W        W41835  10.577  24.736   1.325 -0.0671  0.0317 -0.1625
10620W        W41836  10.349   3.673   8.700 -0.3889 -0.1063 -0.2944
10621W        W41837  24.506   8.481   1.422  0.1821  0.1336 -0.0802
10622W        W41838  16.853   9.806   7.611 -0.2674 -0.0009  0.0840
10623W        W41839   9.297   7.627   7.166  0.3598 -0.0117 -0.0441
10624W        W41840  12.559   4.432   1.574 -0.1103 -0.0588  0.0382
10625W        W41841  21.719  15.881   9.332  0.0075 -0.1397  0.2980
10626W        W41842   9.986  24.561   8.202 -0.2167  0.3753  0.0905
10627W        W41843   2.502  22.219   1.880  0.1256 -0.2664 -0.2025
10628W        W41844   0.413  20.301   9.040  0.2872 -0.0624  0.1057
10629W        W41845   5.245  21.107   3.517 -0.1461  0.1187 -0.2917
10630W        W41846   0.089   4.301  10.429  0.1272 -0.1215 -0.2241
10631W        W41847  13.875   1.597   8.713 -0.4054  0.0150  0.1310
10632W        W41848  25.360  17.099   7.466  0.0273  0.1512 -0.0808
10633W        W41849  13.215  25.414  10.084 -0.4832  0.2724 -0.0643
10634W        W41850   6.629  11.544   0.423  0.1128  0.1986  0.1719
10635W        W41851  22.244  10.891   0.825 -0.1871 -0.1640  0.1728
10636W        W41852  15.439  19.771   1.688  0.0303  0.0246 -0.0269
10637W        W41853   5.747  19.833   1.142 -0.1567 -0.0055  0.3184
10638W        W41854   2.287   6.730   0.737  0.0619  0.0260 -0.1094
10639W        W41855  23.617   4.300   2.442 -0.0790  0.1690 -0.2522
10640W        W41856  13.955  17.309   9.596 -0.1110  0.3654  0.2682
10641W        W41857  11.743  11.015   0.329  0.1270 -0.2885 -0.3371
10642W        W41858  18.605  13.239   0.978 -0.0443 -0.0318 -0.2362
10643W        W41859  23.382   8.382   9.898 -0.1882 -0.1276  0.2385
10644W        W41860  21.135   5.848   3.260  0.0118  0.3048  0.3356
10645W        W41861  23.496  12.929  10.100 -0.0177  0.1929 -0.0333
10646W        W41862  19.709   9.654   0.747  0.1368  0.1558  0.5051
10647W        W41863  12.670  11.350  10.318 -0.0263  0.2060 -0.1209
10648W        W41864  27.541   8.367   3.171 -0.1320 -0.0249 -0.3322
10649W        W41865  24.813  24.716   8.712 -0.0235 -0.4519 -0.3046
10650W        W41866  26.841   1.850   7.535 -0.1944  0.0317  0.3595
10651W        W41867  16.644   9.434   9.038 -0.1432 -0.3077  0.1056
10652W        W41868  23.919  22.900   9.297  0.0935 -0.0561  0.1604
10653W        W41869  25.090  21.101   1.047 -0.0581 -0.1939 -0.2998
10654W        W41870  22.206  20.127   3.246  0.2194  0.0813 -0.0093
10655W        W41871  17.451   2.378   8.143  0.1322  0.0597  0.0244
10656W        W41872   6.576  19.572   9.761  0.1836 -0.4794 -0.3053
10657W        W41873  18.438  25.660   2.130  0.0424 -0.0050 -0.1028
10658W        W41874  15.049   7.292   0.030 -0.0374 -0.0772 -0.0514
10659W        W41875  21.453   0.327   9.595 -0.0897  0.0453 -0.0861
10660W        W41876   3.326  26.742   8.864 -0.1224 -0.2045  0.0411
10661W        W41877  14.989  23.607   9.992 -0.2587  0.0010 -0.1386
10662W        W41878  11.738  14.751   0.393 -0.0250  0.0192  0.1650
10663W        W41879   6.134  20.908   3.795 -0.0103 -0.0610 -0.1162
10664W        W41880  15.128  17.942   9.619 -0.0652 -0.2457 -0.1734
10665W        W41881  27.188  14.099   2.164 -0.2605  0.1073  0.1113
10666W        W41882   7.385  14.515   9.878 -0.3014 -0.0629  0.1288
10667W        W41883  14.794   4.977   8.202 -0.3927 -0.1491  0.2597
10668W        W41884  14.555  17.572   0.125  0.0006 -0.2952  0.0943
10669W        W41885   8.573   8.160   3.898 -0.1968 -0.0939  0.2674
10670W        W41886   4.732  27.098   9.590  0.5471  0.1094 -0.2500
10671W        W41887  23.772  14.046   9.318 -0.0722 -0.1628  0.3059
10672W        W41888  12.630   8.208   3.398 -0.0812  0.0855  0.1243
10673W        W41889  26.818   2.166   3.015 -0.0630  0.3154  0.0033
10674W        W41890  15.155  10.662   1.427  0.2983  0.0687  0.0001
10675W        W41891   8.477   6.215  10.204 -0.2808 -0.0342 -0.0312
10676W        W41892  14.179   1.434  10.419 -0.1812  0.2870 -0.1486
10677W        W41893  24.738   4.909   3.782  0.0781 -0.2133  0.1562
10678W        W41894  15.873  20.706   1.641 -0.1123 -0.0485  0.1153
10679W        W41895  15.666   2.891   1.538  0.4332 -0.1581 -0.2602
10680W        W41896   4.250  23.421   0.538 -0.1013  0.0960  0.0739
10681W        W41897  22.365  16.615  10.292  0.0686  0.4327  0.3179
10682W        W41898  19.568  11.294   1.383 -0.1744  0.6468  0.0605
10683W        W41899  14.636  16.419   9.190 -0.0423  0.1973  0.1073
10684W        W41900   5.671   0.210   8.668  0.0848 -0.0797  0.3081
10685W        W41901  22.407   8.198   1.307 -0.0356 -0.0391 -0.0954
10686W        W41902  15.725  10.845   9.521 -0.1248 -0.2723  0.2246
10687W        W41903  13.312  12.344   7.565 -0.1527 -0.1918 -0.0278
10688W        W41904  18.290   1.106   2.626 -0.0201  0.0285 -0.2070
10689W        W41905   4.121  12.480   0.180  0.0520  0.1695 -0.1166
10690W        W41906  13.070   4.097   0.862  0.1456  0.4387 -0.0409
10691W        W41907  20.479  16.325   9.939 -0.2270  0.1581 -0.1771
10692W        W41908  10.564  22.102   8.835  0.0014 -0.0510 -0.0005
10693W        W41909   1.069  13.740   8.244 -0.0323 -0.4543 -0.3760
10694W        W41910  11.224   8.153   9.474 -0.0977  0.2201  0.0470
10695W        W41911  15.438  14.760   8.636  0.0934 -0.1197 -0.1507
10696W        W41912  11.380   3.746   1.483  0.0475  0.2764  0.1090
10697W        W41913   2.116   0.910   9.903  0.0165  0.0273 -0.0656
10698W        W41914  19.797  22.372   9.674  0.0868  0.1111  0.0266
10699W        W41915   9.844  15.581   0.814 -0.1579  0.0518 -0.3260
10700W        W41916  10.457  26.709   7.914  0.0326 -0.1469 -0.1063
10701W        W41917  25.503   8.657   9.694  0.4540  0.2023  0.0450
10702W        W41918   2.042  12.682   3.467 -0.0011 -0.0676 -0.0556
10703W        W41919   7.745   4.688   9.294  0.1240  0.0693  0.3782
10704W        W41920  20.060  24.153  10.177  0.1921 -0.2531  0.1841
10705W        W41921  10.634  10.337   8.362  0.2147 -0.1891  0.0558
10706W        W41922  24.036  23.647   7.456 -0.1397 -0.1167  0.3310
10707W        W41923  20.880  25.650   1.468  0.2401  0.0185 -0.0131
10708W        W41924  25.887  13.487   1.278  0.0692  0.0665  0.0102
10709W        W41925  23.349   3.320   8.545 -0.0272 -0.1293  0.1013
10710W        W41926  15.799  17.090   3.072  0.0902  0.2709  0.2754
10711W        W41927  22.061   5.318   8.323 -0.0575  0.2079  0.2552
10712W        W41928   8.066   6.177   9.173 -0.2544 -0.3497  0.0393
10713W        W41929   5.418  16.136   0.970 -0.1646  0.2501  0.0790
10714W        W41930  25.248   6.117   8.769 -0.2333  0.2083 -0.0959
10715W        W41931   7.589  13.458   8.233  0.1612 -0.1011  0.0900
10716W        W41932   6.041   5.488   1.040 -0.0639 -0.0908  0.0974
10717W        W41933   8.441   2.066   1.726  0.0751 -0.1686 -0.2292
10718W        W41934  14.956   7.893  10.402 -0.1080  0.1852  0.0614
10719W        W41935  12.594  16.791   8.651 -0.3487  0.1059 -0.0849
10720W        W41936  19.574  11.774   9.936  0.0115  0.2177  0.0924
10721W        W41937  19.570  17.498   2.635 -0.1079  0.0167 -0.0530
10722W        W41938  13.727   8.774   0.429  0.0493  0.0192  0.3842
10723W        W41939  15.779   6.270   0.270  0.1428  0.0172 -0.0270
10724W        W41940   9.423  17.148   1.672 -0.3845  0.1608 -0.0672
10725W        W41941   1.203  21.321   1.125  0.1757 -0.3596  0.3996
10726W        W41942  19.055  21.251   1.807 -0.0167  0.0251  0.0233
10727W        W41943   8.459  12.129   2.086  0.0676  0.0079  0.1326
10728W        W41944   1.489  25.780   9.846 -0.1254  0.2698 -0.0569
10729W        W41945  25.677  14.719   0.891  0.1811  0.0563  0.3350
10730W        W41946   0.351  18.069   2.360  0.3171 -0.0763 -0.2690
10731W        W41947  14.752   2.484   8.206  0.0811 -0.0542 -0.0784
10732W        W41948  18.814  24.418   9.685 -0.5192  0.0093  0.1367
10733W        W41949   2.845  15.231   2.179  0.0018  0.0177  0.0467
10734W        W41950  18.011  22.320   8.286 -0.4751 -0.1039 -0.1045
10735W        W41951   1.944  19.876   2.175 -0.0515  0.1400 -0.2321
10736W        W41952  15.388  11.680   1.715 -0.2813 -0.1742  0.0941
10737W        W41953   6.698  10.029   0.808 -0.2580 -0.1035  0.0586
10738W        W41954   1.335  17.171   8.768  0.0533  0.0662 -0.0484
10739W        W41955  24.482  14.753   3.828 -0.3903  0.2438  0.0116
10740W        W41956   8.126   5.550   9.729 -0.0757  0.0667 -0.0025
10741W        W41957  10.261  12.380   8.877 -0.2263 -0.0012 -0.0874
10742W        W41958   8.973   9.049   0.240 -0.0360 -0.0124 -0.4555
10743W        W41959  25.269  10.840   1.253  0.0840  0.0986 -0.1818
10744W        W41960  10.305  25.144   8.850  0.0927 -0.1936  0.3482
10745W        W41961  17.306   8.031   9.262  0.1465  0.1511  0.1561
10746W        W41962   1.757   9.652   2.861  0.5005  0.2568 -0.3810
10747W        W41963   8.387   3.071   1.150 -0.3463 -0.0226  0.0580
10748W        W41964  14.587  19.114   3.724 -0.0512 -0.4867  0.2564
10749W        W41965   2.573  17.673   1.363 -0.1987  0.3353 -0.0846
10750W        W41966  25.474  13.666   0.792  0.0828 -0.0103 -0.1920
10751W        W41967   1.501  20.426   2.517  0.0643  0.3202  0.0523
10752W        W41968   7.184   6.640   8.016  0.0003 -0.2983 -0.0013
10753W        W41969  18.656   0.214   3.400  0.1038  0.1635 -0.2485
10754W        W41970  17.940  14.515   2.261  0.1204 -0.0522  0.0749
10755W        W41971   4.352   1.985   0.961  0.0946 -0.2608  0.0650
10756W        W41972  17.943   8.430   7.935  0.2723 -0.0887  0.4017
10757W        W41973   4.368   1.487   3.511 -0.2566 -0.0545 -0.3500
10758W        W41974  15.384   8.331   2.675 -0.2113 -0.2377 -0.1537
10759W        W41975   7.027   8.534   0.035  0.1396  0.2152  0.2697
10760W        W41976  14.456  11.233   1.908  0.2645 -0.1499  0.2533
10761W        W41977  25.730   2.990   3.481  0.3886 -0.1392  0.2012
10762W        W41978  11.844  12.650  10.348  0.2001 -0.0389 -0.0769
10763W        W41979   5.880   3.507   8.992 -0.2460 -0.1766  0.0462
10764W        W41980  10.788  26.611   1.624  0.1848  0.0417 -0.0082
10765W        W41981   8.159   8.716  10.211  0.3628  0.0510 -0.3750
10766W        W41982   5.250   8.521   2.451 -0.0598  0.1411 -0.1367
10767W        W41983  18.226  17.225   1.958  0.1625  0.0666  0.0116
10768W        W41984  26.891  19.496  10.374 -0.2024 -0.0556 -0.2049
10769W        W41985  19.555  19.620   1.397 -0.1921 -0.1138  0.3502
10770W        W41986  10.291  11.465   8.319 -0.1520  0.1098  0.0859
10771W        W41987   8.087  22.422   3.531  0.0200  0.0508  0.0570
10772W        W41988  17.602  27.317   1.531 -0.2859 -0.0336 -0.0687
10773W        W41989  17.746  16.379   1.922 -0.1463 -0.1582  0.1886
10774W        W41990  14.318   0.897  10.513 -0.2661  0.0422 -0.3058
10775W        W41991  27.229  13.325   4.001 -0.2456 -0.1378 -0.0149
10776W        W41992  20.367  14.263   7.682 -0.0645 -0.3173 -0.1706
10777W        W41993   3.107   1.860   0.552 -0.3393 -0.2160  0.0280
10778W        W41994   8.101   3.374   7.899  0.0422  0.0400  0.3667
10779W        W41995   1.724  26.321   3.204  0.0668 -0.0607  0.2166
10780W        W41996  12.897   5.984  10.525  0.3533 -0.0654 -0.2233
10781W        W41997   7.883   2.615   8.408 -0.0113 -0.2087 -0.0738
10782W        W41998  17.348  13.277   1.027  0.0493 -0.0612  0.0219
10783W        W41999   8.729   8.401   1.113  0.0110  0.0405  0.0321
10784W        W42000   8.121  11.341   2.645  0.1909 -0.0469 -0.2659
10785W        W42001  11.981  27.121  10.525 -0.2259  0.0256 -0.3148
10786W        W42002   4.522   1.469   0.005  0.1556  0.0951  0.0396
10787W        W42003   3.151  13.489   9.873  0.3668 -0.2422 -0.0163
10788W        W42004   9.452  15.656   8.839 -0.0729 -0.1632 -0.0045
10789W        W42005  24.266  23.871   8.358 -0.1597  0.1170 -0.3702
10790W        W42006  16.369  24.325   1.251 -0.0790 -0.0520 -0.1726
10791W        W42007   1.698  23.619   8.121  0.4477 -0.0117 -0.0043
10792W        W42008   3.551  18.922   9.324  0.1923  0.0568 -0.0060
10793W        W42009  15.227   4.151   1.175  0.1129 -0.0610 -0.0828
10794W        W42010   7.715  17.605   8.133 -0.0219 -0.1198 -0.0566
10795W        W42011   0.945  11.881   2.877 -0.2825  0.1759  0.0435
10796W        W42012  22.563  18.186   0.563  0.2519 -0.3726  0.3103
10797W        W42013  15.607   5.750   2.654  0.0442  0.0002  0.0647
10798W        W42014  22.377  24.305   0.851 -0.0021  0.0165  0.2645
10799W        W42015  12.081  18.109   9.332  0.2588 -0.0506 -0.1001
10800W        W42016   9.177   5.227   1.975 -0.0977  0.1570  0.0981
10801W        W42017  18.762  13.524   0.593  0.0563  0.0858  0.2234
10802W        W42018  25.120   9.386   9.029  0.2178  0.0416 -0.0330
10803W        W42019   3.620   3.695   7.453  0.1164 -0.3160  0.0732
10804W        W42020  17.297   2.205   8.810  0.1618 -0.1211 -0.2345
10805W        W42021  18.918  18.726   8.724  0.2191  0.1233  0.1797
10806W        W42022   6.785  22.607   0.493  0.0525  0.3713  0.0668
10807W        W42023  21.482  26.013  10.539  0.2389  0.0885 -0.2888
10808W        W42024  17.394   5.205   0.641  0.1482 -0.2058  0.1334
10809W        W42025  12.829   1.580   0.915  0.1621  0.2753  0.1262
10810W        W42026  22.968  23.196   7.461 -0.1236  0.2926  0.1002
10811W        W42027  12.710  27.399   0.650 -0.0990  0.0031  0.0404
10812W        W42028  13.175   3.129   9.911 -0.0292  0.0495  0.2690
10813W        W42029   3.556  15.543   9.296  0.2637  0.1139 -0.0553
10814W        W42030  13.704   4.897   3.987 -0.4347 -0.2041  0.1927
10815W        W42031   0.202  19.790   9.249  0.0185  0.0229 -0.1879
10816W        W42032   8.069  19.243   2.160  0.1628  0.1688  0.1048
10817W        W42033   7.115   9.295  10.164 -0.0344  0.1062 -0.0002
10818W        W42034  19.755   3.850   1.173 -0.0232  0.0640 -0.0330
10819W        W42035  18.878  26.081   2.264  0.1990  0.2119  0.0539
10820W        W42036   4.681  25.953   1.399  0.1848 -0.2456 -0.2701
10821W        W42037  17.842  15.804   0.003 -0.4565  0.0858  0.4244
10822W        W42038   9.570  22.490   8.823 -0.1655  0.2319 -0.2047
10823W        W42039  12.514  19.162   1.572  0.1087  0.0981 -0.1686
10824W        W42040  23.924  14.875   8.043  0.2345 -0.0053  0.1900
10825W        W42041  19.783  23.930   1.992  0.0526  0.0708 -0.0453
10826W        W42042   2.301  20.528   3.352 -0.1594 -0.0036 -0.1125
10827W        W42043  20.591   4.109   0.938  0.3921 -0.3084 -0.0951
10828W        W42044  23.205   1.007   0.311 -0.0690 -0.1419  0.0085
10829W        W42045  10.091  24.922   1.485 -0.0872 -0.1200  0.0644
10830W        W42046  22.163   6.930   9.278  0.0176  0.0318 -0.1135
10831W        W42047   2.835  10.940   9.658 -0.1872  0.0715 -0.1334
10832W        W42048   6.125   9.436   0.535  0.1460 -0.1446 -0.0733
10833W        W42049  13.297  24.787   7.962 -0.0499  0.1440 -0.0361
10834W        W42050  14.500  12.359   1.900  0.0590  0.0438  0.0666
10835W        W42051  26.680  23.495   3.077  0.1383 -0.3076 -0.0423
10836W        W42052  17.739   7.185   9.498  0.0406 -0.0500 -0.1748
10837W        W42053   6.625  21.306   9.538  0.2874 -0.1264  0.0445
10838W        W42054  11.726  11.609   0.142  0.0160  0.2411  0.0025
10839W        W42055   3.216   4.041   1.268 -0.1455  0.0967 -0.0616
10840W        W42056  18.262   1.599   1.731 -0.2528 -0.0379  0.2533
10841W        W42057  22.177  21.252   9.335  0.3219 -0.0096  0.0047
10842W        W42058  10.182  10.378  10.346  0.4370 -0.0725  0.0733
10843W        W42059  23.070  11.515   9.180 -0.1727  0.2133 -0.1438
10844W        W42060  11.054  26.112   3.226 -0.2077 -0.1297 -0.4565
10845W        W42061   4.919  18.498   2.466 -0.0778 -0.1002 -0.3578
10846W        W42062  14.720  25.606   0.316 -0.3176 -0.2240 -0.1080
10847W        W42063  27.132   7.913   9.949  0.3207  0.1243 -0.0215
10848W        W42064   7.247  22.335   0.712  0.2270  0.0808 -0.0145
10849W        W42065  22.123  24.874   9.133 -0.3176  0.1937  0.2577
10850W        W42066   9.101   4.487   8.984  0.2193 -0.1477 -0.1057
10851W        W42067   9.738  19.495   3.300  0.2230  0.2464 -0.3954
10852W        W42068   6.685  11.679   6.912 -0.1077  0.2347  0.0321
10853W        W42069   7.181   0.498   1.391  0.0526  0.2091 -0.1735
10854W        W42070  25.862  16.515   8.146  0.1656 -0.0477  0.2644
10855W        W42071  11.038   1.028   2.145  0.0199  0.2784 -0.0719
10856W        W42072  22.928  11.592   0.573  0.0256  0.1486  0.0679
10857W        W42073   9.432  12.082   7.752  0.0602 -0.3400  0.0012
10858W        W42074   1.812  19.706   0.647 -0.1387  0.2855  0.0291
10859W        W42075  26.678  14.970   0.392 -0.4238  0.3613  0.0468
10860W        W42076  12.076  19.525   7.049 -0.1810 -0.0894 -0.0798
10861W        W42077   2.986  19.205   2.678 -0.0575  0.1538  0.1857
10862W        W42078  14.080   2.066   8.648  0.2000 -0.1528 -0.1113
10863W        W42079  26.102  20.379   2.198 -0.1225 -0.0256  0.1796
10864W        W42080  11.418  24.801   0.495 -0.0165 -0.0269 -0.2080
10865W        W42081   4.054  16.478   0.870  0.0961  0.3148  0.1351
10866W        W42082  20.364  19.080   8.988  0.1435 -0.2932 -0.0968
10867W        W42083  10.745   2.952   8.226  0.1726 -0.1782 -0.1616
10868W        W42084  21.028  26.639   0.710 -0.0053  0.1100  0.0225
10869W        W42085   1.670   5.200   2.033 -0.1696  0.2775 -0.2849
10870W        W42086  26.583  12.378   3.178 -0.0142  0.0985 -0.0240
10871W        W42087   5.082  19.298   1.803  0.1071 -0.1731  0.1001
10872W        W42088  14.955  27.117   8.252  0.0746  0.3445  0.0996
10873W        W42089  26.708   6.974   2.976  0.2467  0.1732 -0.1568
10874W        W42090  19.955  15.178   3.640  0.1356 -0.1412  0.2616
10875W        W42091  16.333  15.860  10.065  0.2537 -0.0256  0.1566
10876W        W42092  12.572  15.830   8.255 -0.1156 -0.1217  0.4879
10877W        W42093   8.328  18.316   3.408  0.3466  0.0405  0.0938
10878W        W42094  22.027  20.182   9.609 -0.0931 -0.0055  0.4194
10879W        W42095  15.323   8.242   9.434  0.1458 -0.1455  0.1396
10880W        W42096  17.623  11.977   2.248 -0.2485 -0.1865 -0.1925
10881W        W42097   1.661  14.500   2.170 -0.1287 -0.3095 -0.0633
10882W        W42098   5.016  26.300   1.182 -0.1879  0.0665 -0.0211
10883W        W42099  20.671  12.088   9.846  0.0150 -0.0650  0.0827
10884W        W42100  11.452  24.063   8.879 -0.2723 -0.1988 -0.2091
10885W        W42101  21.545  15.079   2.353  0.0758  0.1621  0.2470
10886W        W42102  12.565   6.033   2.137  0.0051 -0.2567 -0.1579
10887W        W42103   9.349   0.330   9.129 -0.1867 -0.3698  0.0828
10888W        W42104  19.474  14.084   7.111 -0.1871 -0.3781 -0.0960
10889W        W42105  17.661  15.424  10.232  0.0338 -0.0189  0.0656
10890W        W42106   8.461  15.831   1.957  0.1361  0.3241  0.0149
10891W        W42107  18.065  13.947   0.631 -0.2026  0.0592  0.4336
10892W        W42108   3.016   7.161   8.601  0.2276  0.0617  0.1141
10893W        W42109  24.180  19.351   0.140  0.1773  0.0300  0.0041
10894W        W42110   4.843  12.850   2.021  0.1165 -0.0621  0.0184
10895W        W42111  16.062  12.383   7.529 -0.2582 -0.0961 -0.1048
10896W        W42112  19.636  13.353   1.217 -0.0413 -0.4926  0.1235
10897W        W42113  14.784   9.824   9.668  0.1218 -0.1441 -0.0448
10898W        W42114  13.866   5.151   8.232  0.1748  0.1601 -0.2839
10899W        W42115  18.277  17.191   0.742  0.1993  0.1224 -0.0659
10900W        W42116  26.327   0.477   2.335  0.1496  0.0607  0.0659
10901W        W42117   4.346   9.928  10.195  0.1704  0.0203 -0.1294
10902W        W42118   4.914   8.499   1.293  0.1952 -0.0203 -0.1509
10903W        W42119  12.274   1.250   8.501  0.2313  0.2196  0.2995
10904W        W42120  15.467  17.887   1.878  0.2469 -0.2471  0.2939
10905W        W42121  16.066   3.254   2.331  0.6701 -0.2017 -0.1959
10906W        W42122  25.999   2.372   2.642  0.0501 -0.1146 -0.0477
10907W        W42123   5.794  13.744   7.739 -0.1833  0.4462 -0.1265
10908W        W42124   4.717  20.486   9.347 -0.2467  0.2574  0.2016
10909W        W42125   5.579   8.712   0.075 -0.0569  0.1974 -0.0034
10910W        W42126  14.922  22.064   8.895  0.1507  0.1329 -0.1565
10911W        W42127  20.912  24.794   7.363 -0.1147  0.0443 -0.2049
10912W        W42128  26.154   5.501   3.643 -0.2884  0.2708  0.0400
10913W        W42129  11.626  27.339   3.226 -0.1350  0.1541 -0.1424
10914W        W42130  25.069  12.965   2.091  0.0554  0.3070  0.0660
10915W        W42131  21.351   8.499   2.733  0.3272  0.0131 -0.2842
10916W        W42132  15.398   0.871   9.594 -0.0480  0.1396 -0.2883
10917W        W42133   6.343  16.449   8.018 -0.5060 -0.2406  0.0196
10918W        W42134  26.648  17.606   3.208  0.0352 -0.3029  0.0832
10919W        W42135  11.848  12.998   8.224  0.0193 -0.0138  0.3800
10920W        W42136  16.635   1.065   1.484  0.1696  0.1242  0.0815
10921W        W42137  18.598  14.307   3.244  0.0903 -0.1417 -0.0464
10922W        W42138   4.534   9.502   3.307  0.0460  0.0949 -0.2962
10923W        W42139  12.140  13.009   2.889 -0.2497  0.0384  0.0336
10924W        W42140   4.486  21.573   9.978  0.3736 -0.3957 -0.1756
10925W        W42141  22.757  10.499   1.933 -0.0710  0.1407 -0.1488
10926W        W42142  19.965  24.093   9.560  0.3674 -0.2732  0.1636
10927W        W42143  19.638   5.796  10.255  0.0717  0.3441  0.2544
10928W        W42144  18.670   3.424   8.773 -0.1766 -0.2528  0.0866
10929W        W42145   9.024  17.898  10.522  0.1691 -0.0597 -0.0045
10930W        W42146  16.760   5.415  10.096  0.0648  0.2114  0.3818
10931W        W42147   1.167  14.648   8.557  0.1094  0.0401  0.1570
10932W        W42148   3.588  25.186   9.898  0.1613 -0.1588  0.1756
10933W        W42149  25.694  15.530   3.762  0.2421 -0.1460  0.3025
10934W        W42150  23.551   6.428   2.551  0.1449 -0.0135 -0.0961
10935W        W42151  23.475   4.514   9.359 -0.1559 -0.2383  0.3153
10936W        W42152  23.142   9.801   0.478  0.0293 -0.3405  0.3026
10937W        W42153   1.617  12.723   9.765 -0.0210 -0.0948 -0.1632
10938W        W42154  20.059  18.138   7.962 -0.1723 -0.0867 -0.3456
10939W        W42155   4.230  13.006   0.041 -0.1802 -0.0389 -0.5209
10940W        W42156   1.910  21.633   9.555 -0.3935 -0.1079  0.0754
10941W        W42157  25.838   2.306   8.943  0.0284 -0.1933  0.0781
10942W        W42158  11.263  14.491   9.843  0.0072 -0.3653  0.1220
10943W        W42159  10.280  15.338   2.876 -0.0819  0.1029  0.1097
10944W        W42160  11.021   3.963   7.848  0.1807 -0.0270 -0.1405
10945W        W42161   8.000  14.714   1.714 -0.0781 -0.0833  0.2386
10946W        W42162  16.243   1.212   9.708 -0.0098  0.0488 -0.2995
10947W        W42163  12.640   9.293   2.662 -0.0756 -0.4358 -0.1530
10948W        W42164   2.499  13.589   2.343  0.0554  0.0886  0.0978
10949W        W42165   7.970  19.430   2.641  0.0161 -0.1684 -0.0014
10950W        W42166  14.988  21.423   8.262 -0.1643  0.0119  0.2213
10951W        W42167   9.332  14.102   9.929  0.0861 -0.2509 -0.1485
10952W        W42168  27.288   2.788   0.311 -0.1027  0.1727 -0.0813
10953W        W42169  25.434  11.318   9.717 -0.0392  0.1085 -0.2718
10954W        W42170  24.363  23.629  10.381  0.0109  0.0430 -0.1095
10955W        W42171  22.197   3.584   9.818 -0.0196  0.0988 -0.2251
10956W        W42172   4.803  18.212   0.502 -0.0619  0.2044 -0.0349
10957W        W42173  18.905   6.660   9.122  0.1443  0.0030 -0.3679
10958W        W42174   5.669  14.870   0.644 -0.0158 -0.1238 -0.0707
10959W        W42175   3.569   5.634   8.224  0.0407 -0.1030  0.0167
10960W        W42176   1.761   4.927   2.437 -0.5420  0.0129 -0.2170
10961W        W42177  11.892  11.617   0.816  0.0222 -0.2256 -0.1660
10962W        W42178   4.503   2.283   9.963 -0.1876  0.1817  0.1216
10963W        W42179   8.030  21.206   0.229 -0.1213  0.2125  0.1341
10964W        W42180  24.654   9.934   1.757 -0.4320 -0.2779 -0.3501
10965W        W42181   3.028  10.673   2.387 -0.2504 -0.0861 -0.0722
10966W        W42182  24.354  17.169   8.834 -0.1425 -0.1291 -0.0751
10967W        W42183  26.900  16.073   9.171 -0.0507 -0.3133  0.3079
10968W        W42184  19.920   5.934   0.114 -0.0384 -0.1024 -0.1001
10969W        W42185   7.068  24.999   9.339  0.3799 -0.0711 -0.0816
10970W        W42186  24.373   6.809   9.321  0.2661 -0.0301 -0.0392
10971W        W42187   2.019  10.848   0.815 -0.2675  0.0684 -0.0653
10972W        W42188   1.645  20.566   9.844 -0.1982 -0.2395 -0.2439
10973W        W42189  17.312  21.803   2.953  0.1707 -0.1128  0.0394
10974W        W42190   0.116  20.268   3.143 -0.2420  0.5466  0.2193
10975W        W42191   3.678  25.161   1.266  0.0596  0.3646 -0.1327
10976W        W42192  26.865   2.402   1.638 -0.0252  0.0014  0.0570
10977W        W42193   0.417   9.312  10.241  0.0327 -0.1859  0.0591
10978W        W42194  15.895  14.121   9.960 -0.1319  0.0100 -0.2338
10979W        W42195  20.350   3.417   8.561 -0.2960  0.0449  0.0363
10980W        W42196  11.053  19.969   8.924 -0.2873 -0.1070 -0.1123
10981W        W42197  25.389   7.543  10.374 -0.2556 -0.0401 -0.0681
10982W        W42198  24.208   2.823   8.838  0.2345 -0.1201  0.0284
10983W        W42199  11.095  19.060   7.543  0.1242  0.0922 -0.0492
10984W        W42200  27.057   1.244   9.367  0.1934  0.2526  0.0574
10985W        W42201  12.401  14.000   3.534 -0.0520 -0.0863  0.1054
10986W        W42202  23.035   8.617   2.104  0.3081  0.1298 -0.0531
10987W        W42203  20.491  19.609   1.430 -0.3596  0.1234  0.2009
10988W        W42204  17.615  11.569   9.883 -0.2530  0.1924  0.3261
10989W        W42205  21.073  22.269   7.269 -0.1102 -0.1544  0.0429
10990W        W42206  16.371   5.040  10.124  0.2200  0.1446  0.0755
10991W        W42207  16.492  20.076   8.274 -0.0006  0.0867 -0.1602
10992W        W42208  25.717  24.508   3.433 -0.1868  0.2117  0.2122
10993W        W42209  18.947  17.600   2.522  0.3581 -0.1875  0.3482
10994W        W42210  26.272   6.615   3.607 -0.0538 -0.0872  0.1509
10995W        W42211   0.056  26.901   9.979  0.5182 -0.1083 -0.3223
10996W        W42212  10.626  21.554   2.674 -0.0843 -0.1638 -0.0528
10997W        W42213  26.112   8.174   3.131 -0.0653  0.1032  0.0820
10998W        W42214   4.686  17.755   0.288  0.2866  0.0821  0.0376
10999W        W42215   0.108   8.194   0.037 -0.3689  0.1121  0.1565
11000W        W42216  27.099  12.168   7.586  0.0243 -0.1381 -0.0262
11001W        W42217  23.933  16.238   3.336  0.1339 -0.0006  0.2969
11002W        W42218  25.504   1.943   4.145 -0.2328  0.1482 -0.0986
11003W        W42219   0.288  17.567   2.460 -0.0062  0.1130 -0.0652
11004W        W42220  10.530  12.395   7.399  0.0767  0.1221 -0.3941
11005W        W42221   6.424  17.141   1.771 -0.0522  0.2240 -0.2506
11006W        W42222  12.977  13.489   9.447  0.0822  0.0809  0.1869
11007W        W42223   8.446  22.101  10.150 -0.1712  0.3462 -0.3323
11008W        W42224  21.910  20.891   7.744  0.2780  0.0339  0.0116
11009W        W42225  17.561   0.971   3.761 -0.0118  0.1480  0.0613
11010W        W42226   0.994   4.551   9.754  0.2895 -0.0561 -0.0808
11011W        W42227  11.355  12.551   7.482 -0.3768  0.0764 -0.0376
11012W        W42228   5.236   9.791   6.986  0.2308 -0.1876 -0.1116
11013W        W42229  17.079  13.100   9.053 -0.1062  0.3127 -0.0122
11014W        W42230  21.236  13.084   3.202  0.2273 -0.0355  0.0602
11015W        W42231   5.080  15.769   8.251  0.3586  0.2310 -0.0384
11016W        W42232   2.595   6.002   0.236 -0.0387  0.2482  0.6688
11017W        W42233  26.809   9.126   9.897  0.0002 -0.0801 -0.7038
11018W        W42234  13.933  15.436   8.216  0.1493 -0.0948 -0.1828
11019W        W42235   2.235  14.678   2.148  0.3931 -0.0420  0.0946
11020W        W42236  16.094   2.721   9.261  0.6130  0.1707  0.0666
11021W        W42237   4.993   2.642   3.088  0.1993  0.2010 -0.0998
11022W        W42238  27.140  12.564   0.642  0.3774 -0.0023 -0.0795
11023W        W42239   1.894  11.780   3.266  0.2562  0.0056  0.2508
11024W        W42240  15.918   3.837   9.694  0.0647  0.0064  0.3114
11025W        W42241  15.641   6.379   0.731  0.0082  0.0141  0.3101
11026W        W42242   6.011   0.948   9.342  0.2812  0.1240  0.1768
11027W        W42243  19.982  18.097   8.778  0.0605  0.6023 -0.5941
11028W        W42244  11.131   0.117   2.961  0.0339  0.1516  0.1586
11029W        W42245  10.732   3.834   8.296  0.0790  0.2257 -0.2587
11030W        W42246   8.507   6.652   1.778 -0.1225 -0.0581 -0.1533
11031W        W42247  13.859  17.298   3.037  0.1599 -0.0189  0.1564
11032W        W42248  14.137   4.245   3.622  0.2206  0.1343  0.2731
11033W        W42249  26.395   5.464   2.651 -0.1213 -0.1765  0.3296
11034W        W42250   3.718   7.651   0.169 -0.0776 -0.0108 -0.3309
11035W        W42251  24.651  14.369   2.131  0.0522 -0.2731  0.0682
11036W        W42252  11.767   6.111   9.766  0.1006  0.2875  0.0307
11037W        W42253   8.029  20.958   8.094  0.2114  0.0951  0.0164
11038W        W42254  19.613  10.998   2.832  0.2958  0.3750  0.0179
11039W        W42255   9.502   0.071   8.119 -0.0629  0.4419  0.3048
11040W        W42256  22.994  15.955   0.550 -0.0379 -0.3554 -0.0746
11041W        W42257   7.792  25.771   2.252 -0.2292 -0.2679 -0.0294
11042W        W42258  22.838  20.013   1.414 -0.1644 -0.1797  0.1053
11043W        W42259  25.707  15.667  10.283  0.0809  0.0038 -0.1375
11044W        W42260  22.259  15.503   8.892  0.2331 -0.2019  0.1326
11045W        W42261  10.573  19.397   3.378  0.2745 -0.1300 -0.0688
11046W        W42262  14.905   0.927   1.762 -0.0090  0.0941  0.1099
11047W        W42263  17.575  22.518   8.323  0.2068 -0.0653 -0.1206
11048W        W42264   5.734   6.532   8.219  0.1563 -0.2826  0.1750
11049W        W42265  26.682   0.850  10.120 -0.4535 -0.0629 -0.0004
11050W        W42266  12.806  13.538   8.937 -0.0306  0.1570 -0.4095
11051W        W42267  11.670   9.435   1.582  0.0175  0.1614  0.0419
11052W        W42268   2.904   6.300   7.873  0.0787 -0.0124  0.1629
11053W        W42269  10.659  22.724   1.412 -0.1021 -0.2025 -0.1900
11054W        W42270  11.444  21.063   2.667  0.2085  0.0036  0.0953
11055W        W42271   7.797  12.958   8.931 -0.5613 -0.0994  0.0958
11056W        W42272   3.299  15.985   9.180  0.3211  0.1097 -0.0885
11057W        W42273   5.210  10.337  10.199 -0.2020  0.0198 -0.0440
11058W        W42274  27.070  15.565   9.082 -0.2906 -0.1218  0.0571
11059W        W42275  13.332  14.792   2.316  0.2287 -0.0622 -0.0264
11060W        W42276   3.491  12.872   7.756  0.4987  0.0358 -0.0945
11061W        W42277  22.309  15.928   2.835  0.0810  0.0648 -0.1877
11062W        W42278   4.828  25.303   9.775 -0.1779  0.0268  0.0547
11063W        W42279  20.181  23.796   1.504 -0.0867  0.1560 -0.2667
11064W        W42280  22.553   3.812   2.446  0.3521  0.2670 -0.1899
11065W        W42281  20.678  21.792   8.599  0.0142 -0.0270  0.0421
11066W        W42282  20.848   4.133   9.781 -0.1019 -0.1418  0.4778
11067W        W42283  16.160  18.821   2.281 -0.0814  0.1097 -0.2128
11068W        W42284   2.287  21.615   8.358  0.3837 -0.3845  0.0648
11069W        W42285   5.445  15.159   9.398 -0.1154  0.0812  0.1133
11070W        W42286   8.755  22.340   3.797 -0.0984  0.1313  0.0535
11071W        W42287   1.366  17.849   4.485  0.0876 -0.2407  0.2555
11072W        W42288  19.575  14.357  10.111  0.1940  0.0737  0.0196
11073W        W42289  19.372  27.280  10.170  0.1049 -0.1580 -0.2382
11074W        W42290   1.774  12.095   9.129  0.2175 -0.3072  0.1164
11075W        W42291  21.234  14.487   2.409  0.1532 -0.0924  0.3096
11076W        W42292  21.511  25.257   8.111 -0.2175 -0.2463 -0.1752
11077W        W42293  24.965  20.584   8.461 -0.2763  0.1510  0.0279
11078W        W42294  18.778  25.904   0.295  0.1294 -0.2097  0.0883
11079W        W42295   9.798   7.751   3.142  0.0513 -0.0515 -0.2008
11080W        W42296  27.434  24.872   2.608 -0.0622  0.2225 -0.2041
11081W        W42297  11.405   1.264   8.089  0.1046  0.3729  0.3134
11082W        W42298   3.975  11.209   0.513  0.0752  0.0144  0.0694
11083W        W42299   2.914   6.910   2.239  0.1862  0.0395 -0.2736
11084W        W42300  18.043  26.240   0.689  0.2273  0.5201  0.2285
11085W        W42301  15.519   1.863   1.407  0.0133 -0.0477 -0.2143
11086W        W42302  23.205  25.352   1.523 -0.0649  0.0266  0.2336
11087W        W42303   2.589  24.685   9.009 -0.0699  0.0540  0.1212
11088W        W42304  19.855   2.874   9.840 -0.0158 -0.1172 -0.1533
11089W        W42305  26.313  11.125   1.692  0.2778 -0.2085 -0.0034
11090W        W42306  25.447  16.869   1.805 -0.0588  0.0196  0.0759
11091W        W42307  10.279   1.989   8.213 -0.0857  0.3945 -0.2224
11092W        W42308  25.243   3.749   3.226 -0.3040  0.2484  0.1064
11093W        W42309   9.693   7.894   0.319 -0.2715 -0.0601  0.1282
11094W        W42310  12.245  20.256   8.618 -0.0630  0.3020 -0.3411
11095W        W42311  26.451   2.577   2.774  0.1673 -0.0387  0.0341
11096W        W42312  24.450   4.561   8.545 -0.6126  0.3781 -0.0229
11097W        W42313  16.166  25.097   0.079 -0.0753 -0.1777 -0.3340
11098W        W42314   1.078  24.595   2.020  0.4028  0.1945  0.0483
11099W        W42315  22.879   8.399   0.727  0.4991  0.3340  0.0242
11100W        W42316  23.724  12.072   2.023  0.1400 -0.1368 -0.2246
11101W        W42317   1.592  18.099  10.280 -0.2956  0.2010 -0.1400
11102W        W42318  26.955   2.634   8.600  0.0245  0.1686  0.1348
11103W        W42319  23.112  25.648   1.994 -0.0258 -0.0154  0.1710
11104W        W42320  21.468  18.423   2.668 -0.0888 -0.0102  0.2516
11105W        W42321  19.808   2.641   1.692 -0.0602 -0.4530  0.0588
11106W        W42322  11.269   7.705   9.136 -0.0816  0.3489  0.2294
11107W        W42323  23.334  11.582   9.746 -0.3862  0.0471 -0.0708
11108W        W42324   6.445  16.212   9.004 -0.1976 -0.1723  0.0832
11109W        W42325  21.288   8.039   0.105  0.0804  0.0292 -0.1651
11110W        W42326  12.011  18.258   0.909  0.2438  0.1253  0.1936
11111W        W42327  19.658   8.222   9.042 -0.1596 -0.0169  0.0980
11112W        W42328  22.308  16.886   1.325  0.2519 -0.0451  0.1228
11113W        W42329  13.756  15.434   0.465 -0.2365 -0.1068 -0.1092
11114W        W42330  15.054   5.866   2.233  0.1090 -0.0999 -0.1929
11115W        W42331  16.709  13.655   8.593 -0.0209  0.3881 -0.1931
11116W        W42332   9.659   0.226   2.782  0.0798 -0.1511  0.0849
11117W        W42333  15.058   9.910   1.664  0.1756 -0.2208 -0.2962
11118W        W42334  17.219  20.784  10.509  0.0218 -0.1427 -0.1232
11119W        W42335   2.905  17.435   1.094  0.0226  0.0865  0.1652
11120W        W42336  25.485  13.357   7.670 -0.0694 -0.0744  0.0097
11121W        W42337  15.309  21.927   8.168  0.1875  0.0084 -0.3188
11122W        W42338  19.516   4.763   0.353  0.1681 -0.3254 -0.2279
11123W        W42339   0.886  13.527   0.345 -0.0978  0.1581 -0.3443
11124W        W42340  15.657   0.346   0.434 -0.3809  0.1341  0.0395
11125W        W42341  21.291  26.411   0.338  0.0754  0.1779  0.0166
11126W        W42342   9.324   2.405   1.477 -0.1248 -0.0619  0.1775
11127W        W42343  23.634   5.513   1.364  0.2246  0.1336 -0.0815
11128W        W42344   3.689  27.377   8.772 -0.0451  0.0525  0.0928
11129W        W42345   7.514  20.751   2.490  0.3555  0.0934 -0.0661
11130W        W42346   3.974   5.185   9.828  0.2931  0.1065 -0.2514
11131W        W42347  17.019  26.906   2.141  0.0204 -0.2131  0.4346
11132W        W42348   8.461  15.155   0.367 -0.0631 -0.1847  0.1975
11133W        W42349   1.152  22.983   1.982  0.1253  0.2073 -0.0218
11134W        W42350   4.750   6.426   1.407  0.0823 -0.1780 -0.2074
11135W        W42351   6.431   1.067   2.458 -0.0803  0.2254 -0.0927
11136W        W42352  27.195   0.178   0.848 -0.1893  0.0776  0.0502
11137W        W42353  14.895   0.014   8.452  0.1901  0.1023  0.1605
11138W        W42354   2.388  14.530   0.162 -0.1008  0.1114 -0.3281
11139W        W42355  18.262  24.851   0.282 -0.2568 -0.0904  0.3892
11140W        W42356   9.093   6.538   2.440  0.1260  0.0324  0.1293
11141W        W42357  26.095  17.876   0.299 -0.0364  0.1019  0.0734
11142W        W42358   1.514   0.699   9.358 -0.2273 -0.1768  0.2551
11143W        W42359  26.206  26.007   3.163  0.0668  0.1894  0.2825
11144W        W42360   2.692   3.929   9.477 -0.1533 -0.0373  0.0950
11145W        W42361  10.701   1.710   1.192  0.0425 -0.2524  0.2867
11146W        W42362  20.226   7.823   2.957 -0.0306  0.0452 -0.0813
11147W        W42363  19.933  12.760   0.229  0.0129 -0.1456 -0.1782
11148W        W42364  17.240   9.521   2.225 -0.2398 -0.1736  0.1349
11149W        W42365   1.823  12.495   8.737 -0.0531 -0.2376  0.0032
11150W        W42366  12.027  25.113   0.961  0.2189 -0.1361 -0.1315
11151W        W42367  11.376  26.594   2.728 -0.1595  0.1565  0.3756
11152W        W42368  27.561   0.475   8.932  0.0730  0.0808  0.1658
11153W        W42369   5.804  13.826   8.283  0.0802  0.2382 -0.0431
11154W        W42370  18.692   4.763   9.155  0.0350  0.0033 -0.1226
11155W        W42371   3.887   9.998  10.394  0.2461 -0.2862  0.1134
11156W        W42372  12.778  24.212   9.949  0.1107  0.2957 -0.2188
11157W        W42373   2.776   7.428   1.404 -0.3225  0.0743  0.2340
11158W        W42374  26.338   5.926   2.253 -0.1599 -0.2154  0.0896
11159W        W42375  11.831   8.466   8.332 -0.1933 -0.2187 -0.0233
11160W        W42376  23.226  14.197   1.825 -0.0072  0.2573  0.0293
11161W        W42377  23.321   0.823   8.156 -0.0967 -0.1105 -0.4066
11162W        W42378  22.998  10.692  10.146  0.0582  0.0882  0.1704
11163W        W42379  23.976   6.032   8.315  0.2002 -0.1503 -0.2470
11164W        W42380  14.497  13.112   8.725  0.0610  0.2829 -0.2382
11165W        W42381  16.045  16.672   1.115 -0.2236 -0.1601 -0.1297
11166W        W42382   8.724   9.467   2.607 -0.1604 -0.0949  0.1923
11167W        W42383  15.770   0.786   2.624  0.2674  0.3192  0.0819
11168W        W42384   3.590  26.217   9.728  0.2207 -0.1677  0.0970
11169W        W42385   1.135  23.953   9.345  0.2080  0.4429  0.2023
11170W        W42386  16.237  23.317   2.814  0.1794  0.0212  0.2157
11171W        W42387   1.475   1.748   8.893  0.0510  0.0715 -0.1500
11172W        W42388  18.063  22.248   7.373  0.0826  0.0639 -0.2984
11173W        W42389  12.893   8.720   8.819  0.2176 -0.1160  0.1427
11174W        W42390  10.088  17.181   8.736 -0.1516  0.0582  0.3130
11175W        W42391   2.260  26.070   1.794  0.0144  0.0397 -0.1377
11176W        W42392   8.487  23.764   3.582  0.1259 -0.1529 -0.0699
11177W        W42393  18.302   3.133   7.888  0.1062  0.2093 -0.0281
11178W        W42394   2.529  11.898   2.089  0.0469  0.3107  0.1951
11179W        W42395  15.782   9.297   0.533  0.0340  0.2598  0.2253
11180W        W42396  25.895   3.935   3.008  0.2420  0.0606 -0.0803
11181W        W42397  18.061   4.877   1.345  0.2777  0.0987 -0.0204
11182W        W42398  24.833  16.305   7.675  0.0974 -0.1225 -0.1044
11183W        W42399  11.079  12.144   2.455  0.2055 -0.0554  0.0911
11184W        W42400   4.813  18.701   3.347  0.0357 -0.0616 -0.0583
11185W        W42401  11.627  11.345   8.334  0.0126 -0.1416  0.1199
11186W        W42402  14.570  25.583   3.346  0.2045  0.1447  0.1551
11187W        W42403   2.680   2.970   9.026 -0.0968  0.1184  0.0139
11188W        W42404   1.768   1.354   9.873  0.1824  0.1669 -0.1582
11189W        W42405  27.134  27.312   1.099  0.0194 -0.0664  0.0274
11190W        W42406  13.680   7.097   0.518  0.1824  0.0257 -0.0907
11191W        W42407   0.951  27.598   2.394  0.1176 -0.2144  0.0410
11192W        W42408  14.696  11.889   1.075  0.2023 -0.0302 -0.0043
11193W        W42409   4.782  23.249   0.727 -0.0904  0.1847  0.4521
11194W        W42410  26.604  23.945  10.124  0.1851  0.0649 -0.2492
11195W        W42411  24.672   5.267  10.234 -0.2328  0.0248 -0.0892
11196W        W42412  22.801  12.191   2.158  0.0612 -0.1696  0.3770
11197W        W42413   4.173   3.255   8.464 -0.0660  0.1552 -0.1018
11198W        W42414  10.379  22.074   8.374  0.2509  0.2345 -0.0853
11199W        W42415  17.570  13.118   2.888 -0.2000 -0.0719 -0.0092
11200W        W42416  11.112  16.821   3.337  0.0529  0.0884  0.0459
11201W        W42417   5.524  26.954   2.663 -0.2065  0.2814  0.3887
11202W        W42418  24.579   7.499   3.606  0.2343 -0.0067  0.3265
11203W        W42419  18.278   5.292   7.426  0.0139  0.2620 -0.0043
11204W        W42420  13.374  18.232   0.962 -0.0911 -0.0166  0.0437
11205W        W42421  24.310   1.658   2.130 -0.0727  0.1892  0.0161
11206W        W42422   7.528   7.720   8.367 -0.3113 -0.1680 -0.0583
11207W        W42423   6.876  23.235   9.201  0.4449  0.2960  0.3094
11208W        W42424  10.523  14.669   2.115 -0.0199 -0.1521  0.2010
11209W        W42425  20.457  20.826   3.163 -0.2428  0.0570  0.0540
11210W        W42426  18.348  14.421   2.074 -0.0412 -0.2666  0.4057
11211W        W42427  17.005  22.560   9.269 -0.1721  0.0768 -0.2541
11212W        W42428  23.639   8.448   1.166  0.1003 -0.0095  0.0133
11213W        W42429   5.535  11.937   7.690  0.3263  0.2277  0.1361
11214W        W42430   6.703  24.714   9.171  0.0998  0.1382  0.2689
11215W        W42431   6.179  17.346  10.254  0.2227  0.0388  0.0221
11216W        W42432  19.641  14.562   2.733  0.0341  0.0947  0.2938
11217W        W42433  12.659  10.486   3.064 -0.1441  0.1371 -0.1351
11218W        W42434   3.571  23.831   1.264 -0.0383 -0.0392 -0.1009
11219W        W42435  11.955   7.006  10.526 -0.2482  0.2048 -0.2253
11220W        W42436  22.849  12.489   8.198 -0.0276  0.1933  0.2016
11221W        W42437   8.969  25.690   1.238 -0.2036  0.1344  0.0638
11222W        W42438   0.951  27.352   9.649  0.0388  0.2479  0.1791
11223W        W42439  16.376   3.882   7.224 -0.0260  0.3689 -0.2693
11224W        W42440   1.942  20.926   3.258 -0.0132 -0.1089  0.1066
11225W        W42441   4.068   0.272   3.959  0.4113 -0.1438 -0.3332
11226W        W42442  14.718  23.027   9.174  0.2167 -0.1303  0.0326
11227W        W42443   1.661  24.461   1.225 -0.0476 -0.0177 -0.1960
11228W        W42444   8.204  21.672  10.023 -0.0877  0.2651 -0.2967
11229W        W42445  24.819   3.444   3.133  0.1614  0.2237  0.2322
11230W        W42446  24.664   1.312  10.520  0.4543 -0.1292  0.0444
11231W        W42447  18.407  12.418   9.595  0.0632 -0.2126 -0.0105
11232W        W42448   1.490  15.708   2.368 -0.1725  0.1885  0.1235
11233W        W42449  20.712  11.206   7.444 -0.0914 -0.2955 -0.1838
11234W        W42450   9.536  27.449   9.725 -0.0621  0.2290 -0.0022
11235W        W42451  15.085  19.097   2.884 -0.0672 -0.0263  0.3954
11236W        W42452  17.569  14.212   2.564  0.1434  0.1655 -0.1638
11237W        W42453   4.609   0.373  10.215  0.0865  0.1434  0.3615
11238W        W42454   1.591  20.000   8.726 -0.6596 -0.1702 -0.0547
11239W        W42455  24.188   1.243   7.960 -0.2321  0.0328  0.2353
11240W        W42456   4.797  16.619   1.849  0.3226  0.0798 -0.2331
11241W        W42457   0.262   2.779   7.790  0.1085 -0.1435  0.1724
11242W        W42458  26.823  25.323   0.675  0.1825 -0.0236  0.2587
11243W        W42459   9.250  21.939   0.761  0.0733 -0.3191 -0.0781
11244W        W42460   5.482   9.438   7.331  0.1592 -0.2968 -0.0608
11245W        W42461  13.590  13.611  10.470 -0.0470 -0.2208 -0.0358
11246W        W42462  10.391  21.980   2.473  0.0178 -0.0444  0.4936
11247W        W42463  15.778  11.486   0.141 -0.0538 -0.0334  0.0909
11248W        W42464  17.665  17.011   0.131  0.0403 -0.0094 -0.1103
11249W        W42465   3.534  13.355   1.977  0.3243  0.1772  0.1171
11250W        W42466   7.655  22.350   9.552  0.0074 -0.1551  0.2476
11251W        W42467  10.047   6.632   2.153  0.1779 -0.1374  0.2579
11252W        W42468   1.529   0.007   8.930  0.1657 -0.1719  0.0945
11253W        W42469  11.374  26.512   1.151 -0.0974 -0.1140 -0.1048
11254W        W42470   6.118   4.618   3.043  0.1841  0.0232 -0.1479
11255W        W42471   8.101  18.856   1.350  0.1870  0.1275 -0.2437
11256W        W42472  18.994  16.804   2.188  0.1591  0.0044  0.2377
11257W        W42473  25.234  17.837   8.435  0.0793 -0.1264  0.0235
11258W        W42474   0.643  13.043  10.455 -0.0953 -0.1095  0.0952
11259W        W42475   6.784  24.519   1.529  0.2645  0.0744 -0.2135
11260W        W42476  16.145  10.886   6.920  0.1987 -0.2591 -0.3392
11261W        W42477  10.163  23.628   1.004  0.2262 -0.1814  0.0015
11262W        W42478   8.875   9.046   2.374 -0.0751  0.2756 -0.1823
11263W        W42479  15.386   0.802   3.552  0.2107  0.0616  0.4129
11264W        W42480  20.442  13.807   8.982 -0.3231  0.1236  0.1915
11265W        W42481  20.220  21.363  10.184  0.2022  0.1892  0.3253
11266W        W42482  15.841  10.582  10.523  0.1255  0.0391  0.1379
11267W        W42483  18.148  27.238   0.384  0.1506  0.0887  0.0571
11268W        W42484  11.568  21.859   9.654  0.0997 -0.0948 -0.0453
11269W        W42485  18.660  23.455   9.241  0.1617 -0.1631  0.0873
11270W        W42486  24.094  13.325   3.880 -0.1437  0.0797  0.1551
11271W        W42487   1.902   7.480   9.991  0.0666  0.1034 -0.0832
11272W        W42488  23.258   8.388   0.376 -0.3655  0.0208 -0.4403
11273W        W42489  19.301   3.622  10.332 -0.0987 -0.0934 -0.1374
11274W        W42490  26.024  22.753   0.384  0.0901  0.3066  0.1239
11275W        W42491  13.404   0.033   3.767 -0.1360 -0.1554 -0.1863
11276W        W42492  18.376  15.028   8.855 -0.0468  0.0571  0.0932
11277W        W42493  24.367  23.329   0.408  0.0398 -0.0759 -0.0525
11278W        W42494  11.448  24.840   9.157  0.1531 -0.0088  0.1773
11279W        W42495   1.452  26.574   0.719  0.0984  0.3077 -0.0529
11280W        W42496  27.224   2.828   1.413  0.0915 -0.2165  0.1910
11281W        W42497  25.805   5.132   8.691  0.0975 -0.2027  0.0214
11282W        W42498  18.270  10.238   2.101  0.0068 -0.0836 -0.1514
11283W        W42499  26.792   9.649   9.942 -0.2404  0.1182 -0.1922
11284W        W42500   4.790   9.374   0.824  0.2125 -0.0718  0.0042
11285W        W42501  18.037   7.993   7.396  0.1849  0.1336 -0.0834
11286W        W42502  21.573   0.832   1.086  0.3816 -0.0416 -0.1167
11287W        W42503   2.842  16.726   9.503 -0.0154  0.0910  0.0418
11288W        W42504  16.919  24.933   9.155 -0.1288 -0.0969  0.0714
11289W        W42505   8.476  15.000   1.500  0.2640  0.0746 -0.2686
11290W        W42506  22.671  12.828   0.172  0.0813  0.0324 -0.1829
11291W        W42507   8.272  19.424   3.467  0.2165  0.2013 -0.0792
11292W        W42508   4.802  15.962   9.193 -0.1651  0.1964  0.1479
11293W        W42509  12.291  24.205  10.233  0.0734 -0.1593  0.0300
11294W        W42510  15.065  24.062   2.284 -0.0872  0.0643 -0.0484
11295W        W42511   2.620  19.916   1.356 -0.2500  0.1079  0.0306
11296W        W42512  19.695  22.755   1.448 -0.1315  0.0757  0.1837
11297W        W42513   7.196  17.974   8.822 -0.1166 -0.0461 -0.0091
11298W        W42514   6.640  25.384   9.256  0.2491  0.1602 -0.0551
11299W        W42515  20.814   9.014   9.948  0.0130 -0.0561  0.0604
11300W        W42516  10.988   4.486   9.513  0.1162  0.2074 -0.0770
11301W        W42517  27.377  22.796   8.309 -0.0188 -0.0854  0.1107
11302W        W42518  23.040  17.821  10.221  0.0982  0.1078  0.0718
11303W        W42519  17.669   9.259   2.242 -0.0912  0.1616  0.0939
11304W        W42520  27.070  20.055   1.314  0.1932 -0.1459 -0.0650
11305W        W42521   1.145  19.706   9.444 -0.1978 -0.2138  0.3179
11306W        W42522  16.272  19.245  10.210 -0.1035 -0.1453 -0.0316
11307W        W42523   5.068  13.900   1.618 -0.1879  0.0863 -0.2577
11308W        W42524  18.475   0.316   8.390  0.1125  0.1471 -0.1098
11309W        W42525   0.015  20.761   9.772  0.2187 -0.0536  0.1729
11310W        W42526   8.691   6.250   1.462  0.2708 -0.0638  0.2102
11311W        W42527  16.252   5.462   2.186  0.2040 -0.2281 -0.0545
11312W        W42528   4.475  21.120   0.235 -0.0473  0.3109  0.2045
11313W        W42529   3.190   1.723   3.856 -0.1032  0.0053  0.2339
11314W        W42530  17.629  20.157   3.669 -0.2399 -0.0615 -0.3474
11315W        W42531   0.601  10.575   1.641  0.0013  0.1570 -0.0802
11316W        W42532  23.400  26.609  10.270 -0.0167 -0.1570  0.1039
11317W        W42533  20.936   1.749   0.815 -0.0280  0.0254  0.1027
11318W        W42534   4.528   6.107   1.840 -0.0188  0.1324 -0.0156
11319W        W42535  23.337   9.780   2.535 -0.0802  0.0793  0.1093
11320W        W42536   7.194  13.667   8.635 -0.1563 -0.1039  0.2511
11321W        W42537  22.983  18.859   3.375 -0.1755  0.0465  0.0039
11322W        W42538  14.559   0.539   1.862 -0.1519 -0.0422  0.2023
11323W        W42539   5.618   0.631   2.320  0.1301  0.2038  0.0353
11324W        W42540   7.720  10.675   2.387 -0.1367  0.1785  0.0967
11325W        W42541  26.394   9.584   9.702 -0.0418 -0.1737 -0.1918
11326W        W42542  18.481  15.368   9.264  0.0862 -0.1311 -0.1169
11327W        W42543   6.504   5.085   0.434  0.2435  0.1346 -0.0580
11328W        W42544   3.241  19.110   8.425 -0.3409  0.3287 -0.0456
11329W        W42545  18.597   3.234   9.731 -0.3338 -0.1425  0.0269
11330W        W42546  14.858  17.588   0.559  0.0226 -0.1253  0.1855
11331W        W42547  22.407  25.637   9.584  0.0853  0.1292 -0.1222
11332W        W42548  22.068  14.205   1.203  0.4474 -0.1208  0.2059
11333W        W42549  26.257  16.934   7.979 -0.0805 -0.0547  0.2124
11334W        W42550  20.572  13.828   8.523 -0.0903  0.0608 -0.1558
11335W        W42551   1.272  16.812   9.106  0.2461  0.0874  0.0458
11336W        W42552  15.230  11.870   0.998 -0.0246 -0.0127 -0.0900
11337W        W42553   9.981   8.674   7.875  0.1355  0.0309 -0.2875
11338W        W42554   6.044   0.058   1.671 -0.1444  0.1349  0.0426
11339W        W42555  19.299   1.383   0.190  0.0625 -0.0601 -0.0015
11340W        W42556  22.745   0.888   2.022  0.1127 -0.0947  0.0005
11341W        W42557  14.448  10.365   2.008 -0.2008 -0.1404  0.1208
11342W        W42558   3.105  15.399   0.305  0.0281  0.2992  0.1958
11343W        W42559   0.277  14.941   3.340  0.0118 -0.1818 -0.1176
11344W        W42560  25.228  13.749   3.479 -0.2789  0.1408  0.0220
11345W        W42561  16.942  25.404  10.208  0.0919 -0.1809  0.1937
11346W        W42562  18.840  14.591   7.654  0.1526 -0.1443  0.2007
11347W        W42563  15.049  10.272   3.384  0.0931 -0.4542 -0.0955
11348W        W42564   5.819   6.988  10.360 -0.3204  0.2141  0.1200
11349W        W42565  15.796   0.497  10.074 -0.0720  0.0406 -0.3996
11350W        W42566  15.602  21.735   1.554  0.2270  0.0196 -0.3598
11351W        W42567  20.348   3.355   2.129  0.1160 -0.1494 -0.2725
11352W        W42568  15.660  13.337   7.530 -0.5024  0.3606 -0.0310
11353W        W42569  26.193   5.820   9.101  0.0474  0.2119 -0.2296
11354W        W42570  21.308  23.012   0.706  0.0346 -0.4824  0.0173
11355W        W42571   3.872  22.687   1.456  0.0255 -0.0297 -0.0623
11356W        W42572  15.567  26.610   9.439 -0.0424 -0.0531  0.2748
11357W        W42573  23.145  15.065   7.814  0.1156  0.1893  0.0866
11358W        W42574  13.444   4.286  10.117  0.3140  0.2010 -0.0261
11359W        W42575  18.949  10.561   2.204 -0.0194  0.2502 -0.0326
11360W        W42576   0.744   1.351   1.055  0.0169  0.0084  0.0022
11361W        W42577  25.913  13.126   8.263  0.1121 -0.2289 -0.1240
11362W        W42578  11.084  23.464   2.035 -0.2741 -0.0961 -0.0290
11363W        W42579   4.164  17.084   1.311 -0.0150  0.2764 -0.2460
11364W        W42580  18.521   0.878   2.232  0.0789 -0.1700  0.3756
11365W        W42581  21.171   8.117   3.548  0.3267  0.1842 -0.1675
11366W        W42582  22.547   2.224   1.001 -0.0931  0.0625 -0.1184
11367W        W42583  23.707  15.389   2.145  0.0856 -0.4094 -0.0892
11368W        W42584   9.869   9.646   0.269 -0.0614 -0.3284  0.1492
11369W        W42585   2.421  19.150   0.983 -0.0927 -0.3044  0.2307
11370W        W42586  11.516   7.464   2.054  0.2487 -0.0853  0.2085
11371W        W42587  25.135  22.016   1.427  0.1355  0.2094  0.0835
11372W        W42588  11.955   0.911   2.464  0.2443  0.1955 -0.3244
11373W        W42589  13.976   2.724   8.752  0.4595  0.1016  0.0461
11374W        W42590   5.097  16.646   9.312 -0.0544 -0.2044  0.1836
11375W        W42591   7.526  27.293   9.118  0.4506  0.0622  0.0215
11376W        W42592  25.880  14.648   8.672  0.1795 -0.4161  0.0526
11377W        W42593  11.804  15.726   0.626 -0.1857  0.1578  0.0801
11378W        W42594  12.390  11.461   7.767 -0.3045  0.0479 -0.1142
11379W        W42595  24.449   9.585   3.158 -0.0375 -0.1325 -0.0256
11380W        W42596  23.507  10.723   7.722  0.0278 -0.1071 -0.2942
11381W        W42597  10.618  23.256   1.880 -0.0792  0.0460 -0.3106
11382W        W42598  15.713  26.299   0.864  0.0517 -0.3827 -0.1568
11383W        W42599   3.066  22.207  10.131 -0.0024  0.1069 -0.0647
11384W        W42600  24.231   8.326   9.723 -0.2579  0.0002  0.1608
11385W        W42601  11.721  22.302   7.973 -0.2557 -0.3513 -0.1179
11386W        W42602  19.106  15.064   0.087 -0.0264  0.1614  0.0430
11387W        W42603   9.949   2.643  10.509  0.0845 -0.3420 -0.1491
11388W        W42604   8.675  10.157   7.579  0.0909  0.0119  0.2339
11389W        W42605   3.134  15.446   7.662  0.1620 -0.2168  0.1933
11390W        W42606  10.716   7.108   2.123 -0.0629 -0.0234  0.0873
11391W        W42607  18.225   6.152   0.953 -0.1775 -0.0579 -0.0009
11392W        W42608  14.196  12.649   0.839  0.2123  0.0227 -0.0939
11393W        W42609  17.183   1.684  10.346 -0.2102 -0.1302 -0.2618
11394W        W42610  22.471  23.972   7.549 -0.1259  0.4296  0.2853
11395W        W42611   8.194   5.058   2.164 -0.0229 -0.0572 -0.1277
11396W        W42612  12.294   7.382   8.961  0.1067 -0.2060 -0.2675
11397W        W42613   0.554  11.015   8.287 -0.1934  0.0916 -0.3648
11398W        W42614  14.843   7.252   2.307  0.0326  0.2957  0.3853
11399W        W42615  20.424   2.686   0.524  0.0118  0.3054 -0.1543
11400W        W42616  14.698  13.163   2.916 -0.1298 -0.1268  0.1372
11401W        W42617  14.030  24.819   3.338 -0.1942  0.1303  0.1116
11402W        W42618  21.856  21.051   3.593  0.1179  0.3933 -0.1662
11403W        W42619   2.740  15.748   1.510 -0.1285  0.1199  0.0337
11404W        W42620   6.271   7.574   0.794  0.2533  0.3598 -0.2810
11405W        W42621   7.104  14.530   1.561  0.1782 -0.1221 -0.2068
11406W        W42622  21.277  12.221   2.021 -0.3402  0.0218 -0.0077
11407W        W42623  21.243  11.248   1.630  0.1326  0.0677  0.0194
11408W        W42624   6.496   1.121  10.169  0.1596 -0.1324  0.2454
11409W        W42625  23.602  26.595   7.604 -0.2163 -0.2265  0.0496
11410W        W42626   1.565   0.438   8.277  0.0521 -0.0847 -0.2067
11411W        W42627   3.682  25.738   2.564  0.0881  0.2803  0.0745
11412W        W42628  14.798   4.801   7.323  0.1346 -0.0608  0.4842
11413W        W42629  15.867  13.491   2.548 -0.1351 -0.0249 -0.1883
11414W        W42630   4.116  23.446   1.884  0.1046 -0.0756  0.0495
11415W        W42631  16.397   0.597  10.506 -0.2924  0.0333 -0.1734
11416W        W42632   0.173   5.694   1.047 -0.1341  0.1781 -0.0154
11417W        W42633  19.048   3.484   2.335  0.1518 -0.1538  0.0147
11418W        W42634   1.285   5.778   1.605  0.4138  0.0129 -0.2575
11419W        W42635   3.666  15.115   9.552  0.1440  0.0477  0.0993
11420W        W42636  13.792  26.810  10.004 -0.0352  0.1425 -0.1433
11421W        W42637  10.092  20.504   9.160 -0.0536  0.0224 -0.1819
11422W        W42638  15.415   2.588   1.233  0.0648  0.1601 -0.0052
11423W        W42639   2.176  12.504   7.472 -0.1244 -0.0993 -0.0941
11424W        W42640  18.900   7.755   0.495 -0.1793  0.1213 -0.4263
11425W        W42641  24.638  26.909   1.037  0.0418 -0.1349 -0.3556
11426W        W42642  10.526   3.961   1.298 -0.1592 -0.0901 -0.0094
11427W        W42643  13.186  26.182   3.490  0.2485  0.0220  0.0893
11428W        W42644  14.983  14.242  10.295  0.1764 -0.0637  0.1055
11429W        W42645  22.484   9.194   0.404  0.1717 -0.1497 -0.1862
11430W        W42646  16.003   1.810   1.746  0.1195 -0.3420  0.1448
11431W        W42647   3.870  19.665   1.011 -0.1342 -0.2735 -0.0556
11432W        W42648   2.406  26.082   0.334  0.1288 -0.2119 -0.1710
11433W        W42649  15.636   6.412   9.807  0.1138  0.0641 -0.2309
11434W        W42650   8.843   2.047   9.154 -0.2142  0.0059 -0.2088
11435W        W42651  14.485  14.026   8.639  0.2291 -0.0615  0.0634
11436W        W42652   8.075  19.325   1.062  0.5198 -0.0621 -0.3073
11437W        W42653  13.236  23.102   8.878  0.1211 -0.2289 -0.0107
11438W        W42654   6.639  20.473   0.550  0.0713 -0.0345  0.4185
11439W        W42655  24.072   7.625  10.425  0.3000  0.3154  0.2489
11440W        W42656  18.113  23.558  10.371 -0.0916 -0.0212  0.2395
11441W        W42657  26.242   3.864   2.587 -0.0254 -0.2781  0.2636
11442W        W42658  22.666  14.362  10.454  0.0125  0.1017 -0.2980
11443W        W42659  19.776  20.205   1.708  0.1994 -0.0729  0.2437
11444W        W42660   2.793  20.710   0.139  0.0346 -0.0033  0.0382
11445W        W42661  16.760  19.308   0.550 -0.1544  0.2710  0.3720
11446W        W42662   3.005  23.139   2.455  0.0521  0.0353 -0.1754
11447W        W42663  13.622  18.885   8.962  0.4084  0.0793 -0.0646
11448W        W42664   6.852  24.494  10.114  0.0096 -0.2039  0.1123
11449W        W42665   4.182   6.196   9.591  0.0892 -0.1200  0.0982
11450W        W42666  22.194   7.797   9.338 -0.2189  0.1706 -0.1885
11451W        W42667  20.853  23.888   0.652  0.1195 -0.2429  0.2565
11452W        W42668  13.021  21.504   2.021  0.0918  0.3331 -0.1056
11453W        W42669  12.800  27.000   0.266 -0.2179  0.0825  0.0748
11454W        W42670  27.301   3.813   0.429  0.1062 -0.1230 -0.0698
11455W        W42671  16.484  24.545   2.146  0.2841  0.0043  0.1090
11456W        W42672  23.481  16.908   8.341 -0.1593  0.1087 -0.1861
11457W        W42673  22.640  17.106   2.013  0.1219 -0.0697 -0.0437
11458W        W42674   5.734   8.838   9.798 -0.0567  0.0310  0.1025
11459W        W42675  21.023  20.430   8.624  0.0111  0.4023 -0.0099
11460W        W42676  27.336   4.091   9.964  0.0855  0.2470  0.4271
11461W        W42677   7.557   0.385  10.350 -0.0196  0.0742 -0.2178
11462W        W42678   6.574  23.314   8.168  0.1969  0.1840  0.0800
11463W        W42679  18.658  25.313   8.063  0.4368 -0.2496  0.0498
11464W        W42680   2.942   4.568   2.152  0.1908 -0.2891  0.1052
11465W        W42681   1.972  19.652  10.074 -0.0026 -0.2464  0.0945
11466W        W42682   3.560  18.710  10.053 -0.2337  0.1380 -0.1648
11467W        W42683  23.599   4.150   0.252  0.1289 -0.0586 -0.0888
11468W        W42684  24.176  24.801   9.937 -0.2159 -0.0272 -0.1084
11469W        W42685   7.169  16.963   8.531  0.1051 -0.3902 -0.1346
11470W        W42686   6.850  25.136   2.322 -0.2747  0.1387  0.1094
11471W        W42687  14.298  18.112  10.088  0.0478 -0.2285 -0.2414
11472W        W42688  19.583   4.361   0.032 -0.0411 -0.3193  0.2015
11473W        W42689   0.473  16.239   3.140  0.1972 -0.2080 -0.1883
11474W        W42690  17.070   6.969   2.469 -0.1926 -0.0117  0.1103
11475W        W42691  14.054  23.206  10.002 -0.0634 -0.2326  0.2765
11476W        W42692   6.531  24.243   0.026 -0.0902  0.1008 -0.2085
11477W        W42693  19.400  26.187   2.831 -0.1109 -0.2365 -0.1555
11478W        W42694  22.037  24.345   0.479 -0.0369 -0.2468 -0.1571
11479W        W42695   9.466  16.644   9.049  0.0557  0.1290 -0.1525
11480W        W42696  14.473  17.942   2.887  0.0121  0.0490  0.3339
11481W        W42697  26.555   8.716   2.647  0.0078 -0.1483 -0.0476
11482W        W42698   2.613   0.475   0.207 -0.1377  0.2343 -0.0865
11483W        W42699   8.991   9.799   8.258  0.0235 -0.0357  0.1562
11484W        W42700  20.378  13.690   0.853 -0.2328  0.1204 -0.0693
11485W        W42701  26.443  14.525   0.206 -0.1061  0.0891  0.0620
11486W        W42702  14.940   9.761   8.167  0.3319  0.2005 -0.0696
11487W        W42703  19.439  13.272   7.599  0.3212  0.1848  0.0381
11488W        W42704  15.312  19.951   9.150 -0.0859  0.0352  0.1737
11489W        W42705  10.456   1.714   1.709 -0.1103  0.2443 -0.0978
11490W        W42706   1.541  19.851   9.718  0.2185  0.1012 -0.0589
11491W        W42707  10.829  19.460   1.876 -0.0416  0.2538 -0.0080
11492W        W42708  25.645   8.265   3.499  0.1199  0.2238  0.0142
11493W        W42709  22.829  19.788  10.284  0.3663 -0.1159 -0.1570
11494W        W42710  12.924   9.357   1.313 -0.0974 -0.2173  0.1525
11495W        W42711  10.243  27.463   3.341  0.1149 -0.1695 -0.2756
11496W        W42712  13.796   0.688   8.807  0.1592  0.0380  0.1122
11497W        W42713  25.303  24.844   3.525 -0.0152 -0.1998  0.4039
11498W        W42714  23.960   3.774   8.847 -0.0166  0.4106 -0.1022
11499W        W42715   6.845  21.478   2.584  0.0605 -0.2722 -0.0261
11500W        W42716   7.941   3.869   7.962 -0.1364 -0.0266 -0.3030
11501W        W42717  13.509  14.252   2.449 -0.1428  0.0277  0.1971
11502W        W42718  14.731   2.780   0.241 -0.1347 -0.0465  0.2631
11503W        W42719  25.864  20.018   8.363 -0.1984  0.0624 -0.6497
11504W        W42720  14.808  15.046   0.218 -0.2191  0.0586  0.2797
11505W        W42721   9.494  22.424   0.807 -0.1736  0.2343  0.1160
11506W        W42722   9.331   7.564   8.280 -0.0863 -0.1097 -0.2681
11507W        W42723  21.704   8.280  10.441  0.1173 -0.2308  0.0724
11508W        W42724   3.657  21.971   0.812  0.1132  0.1081 -0.2595
11509W        W42725  23.260  18.317   2.124  0.0399 -0.0957 -0.5032
11510W        W42726   0.520  17.409   7.718  0.0775 -0.0851  0.0545
11511W        W42727  19.862  12.260   3.151  0.0987  0.4073  0.0348
11512W        W42728   2.542  10.967   2.513  0.0146  0.2526 -0.0611
11513W        W42729   3.741   7.749   8.811  0.1488  0.4714 -0.1473
11514W        W42730  27.298  13.266  10.213 -0.4026 -0.1365 -0.2980
11515W        W42731   7.749  26.301  10.246  0.2689  0.0397 -0.0953
11516W        W42732  14.390  19.551   3.571 -0.3157  0.2749 -0.0072
11517W        W42733  22.998  27.296   9.693  0.3156  0.1802  0.0663
11518W        W42734  13.466  21.727   8.852 -0.0114 -0.3655 -0.2124
11519W        W42735  12.569   7.264   8.599 -0.0708 -0.0457  0.1040
11520W        W42736  22.644   3.643   9.398 -0.0824 -0.0449 -0.1775
11521W        W42737  12.390  22.877  10.270 -0.1040 -0.1641 -0.1222
11522W        W42738  25.664  19.008   2.945 -0.0602 -0.1734 -0.0450
11523W        W42739  14.368  10.990   9.844  0.2399 -0.1363  0.0963
11524W        W42740  18.819   9.886   0.556  0.0726 -0.0899 -0.2942
11525W        W42741  24.550   4.289   3.058  0.0572 -0.3232 -0.0245
11526W        W42742  16.853  19.716   3.829  0.1520 -0.0502 -0.2237
11527W        W42743  23.475  16.290   2.848  0.2217  0.1976 -0.0453
11528W        W42744  10.782  21.334   9.884  0.2071  0.0742  0.0654
11529W        W42745  18.682  16.587   8.844 -0.0948  0.0011 -0.0324
11530W        W42746  25.896  20.901  10.432  0.0640  0.2642 -0.1544
11531W        W42747   5.639  13.591   8.761 -0.2868 -0.0481  0.0095
11532W        W42748  18.976  24.998   3.030  0.2474  0.3064  0.1360
11533W        W42749  10.422  14.822   2.781  0.0415 -0.1803  0.2259
11534W        W42750  23.812   9.747   2.257 -0.1034 -0.1805  0.1645
11535W        W42751  12.233  14.766   8.335  0.0777 -0.0138  0.1812
11536W        W42752  22.058  23.374   9.092 -0.2834 -0.3231 -0.1740
11537W        W42753  21.195   7.462   1.293 -0.1434  0.2174 -0.1767
11538W        W42754  22.729  17.448   0.464  0.2074  0.2229  0.1338
11539W        W42755  19.172   2.621   2.238  0.2338  0.0217 -0.0567
11540W        W42756   9.336   4.399   8.028  0.0721  0.1919 -0.1308
11541W        W42757   4.407  20.833   9.362  0.1793 -0.3022 -0.0056
11542W        W42758  22.701  10.895   7.908 -0.1529 -0.0655 -0.0881
11543W        W42759   7.544   2.791   2.410 -0.3579  0.3348  0.2387
11544W        W42760   5.284  11.296   8.726 -0.2261 -0.2060 -0.1321
11545W        W42761  10.897  17.320   1.274 -0.1847  0.0060 -0.0306
11546W        W42762   3.089   4.984   1.642  0.3840  0.1208 -0.2937
11547W        W42763  15.572  12.988   7.901 -0.1428 -0.0186 -0.1303
11548W        W42764  20.850  22.128   8.210  0.2308 -0.0166  0.0358
11549W        W42765  25.581  11.243   0.629 -0.1883  0.0652 -0.1066
11550W        W42766  26.392   0.761  10.504 -0.1051 -0.0127  0.1741
11551W        W42767  25.650  20.713  10.023  0.0788  0.0175  0.5176
11552W        W42768  15.928  17.372   2.322  0.1903 -0.0905  0.4589
11553W        W42769  10.011   8.121  10.435 -0.2148 -0.1342  0.0661
11554W        W42770   1.386   7.314   3.757  0.0620  0.0207  0.0065
11555W        W42771  15.701  27.506  10.427  0.0922  0.0125  0.0376
11556W        W42772  19.780   4.726   7.223  0.0341  0.3160  0.0161
11557W        W42773   6.256  27.367   7.982  0.0528  0.1199  0.0991
11558W        W42774   9.185  17.955   7.678  0.1721  0.0030 -0.0913
11559W        W42775  10.531  18.463   3.354  0.0011  0.4377 -0.2529
11560W        W42776   5.017  18.171   2.829  0.5195 -0.0634  0.2381
11561W        W42777  24.835   6.918   9.989  0.1923 -0.2270 -0.3027
11562W        W42778   1.321  13.744   0.059  0.1756  0.1318  0.0759
11563W        W42779   2.686  11.820   0.382 -0.0109  0.2225 -0.0124
11564W        W42780   1.144   6.312   8.899  0.1825 -0.1905  0.0059
11565W        W42781  23.858   8.092   9.928 -0.0384 -0.2138 -0.2735
11566W        W42782  15.595   4.005   2.449 -0.0275 -0.0148 -0.2474
11567W        W42783   3.736   3.031   8.245  0.0853 -0.0739 -0.1466
11568W        W42784  12.592   3.523   2.827  0.1900 -0.0935 -0.0494
11569W        W42785  23.154  18.503   7.624  0.1208  0.1750 -0.1683
11570W        W42786  26.492   8.747   8.283 -0.2769 -0.0656  0.0387
11571W        W42787   3.526  13.596   2.574  0.2990 -0.0384 -0.1492
11572W        W42788   2.968  26.881   3.232  0.2687  0.1679 -0.2164
11573W        W42789  13.393  14.045   3.566 -0.2362 -0.0677  0.0117
11574W        W42790  26.172   2.241   3.089  0.4133  0.1282 -0.0309
11575W        W42791   9.258  10.715   2.872 -0.1675 -0.0635  0.0618
11576W        W42792  17.828  10.328   1.809 -0.0864  0.2401  0.0689
11577W        W42793  17.757  20.352   1.208 -0.0136 -0.0565  0.2488
11578W        W42794  15.442   7.763   2.818  0.1137 -0.2889  0.0692
11579W        W42795  25.073  15.072   8.242 -0.0913  0.0755 -0.1337
11580W        W42796  22.319   1.202   2.276  0.2299 -0.0222  0.3507
11581W        W42797  20.373  14.087   0.510 -0.1267 -0.0798  0.0085
11582W        W42798  19.407   4.732   1.621  0.1288  0.2021  0.0188
11583W        W42799  19.537   4.556   1.073  0.3478  0.1148  0.0267
11584W        W42800  14.512  23.479   9.853 -0.0539 -0.1998  0.2058
11585W        W42801  26.178  20.981   8.415 -0.1766  0.3911  0.1395
11586W        W42802  19.511  20.788   1.032 -0.1381 -0.1527 -0.1336
11587W        W42803  21.955   9.581   8.480 -0.1878  0.1656  0.1399
11588W        W42804  18.110  17.588   2.386 -0.1790  0.0608 -0.1030
11589W        W42805  18.640  11.992   1.981 -0.1479  0.1113  0.1427
11590W        W42806   8.455  17.693   9.104  0.0563  0.0487 -0.0008
11591W        W42807   6.470  10.488   1.472 -0.0240  0.0181 -0.4143
11592W        W42808  18.741  18.473   3.115  0.0038 -0.1109 -0.0850
11593W        W42809   1.357   6.212   9.829 -0.0907 -0.3625 -0.4092
11594W        W42810  23.485  21.440   8.041  0.3694  0.1367 -0.1412
11595W        W42811  14.357   3.844   9.070  0.3297 -0.1337  0.0707
11596W        W42812  15.195  25.077   1.016 -0.3296 -0.0018  0.0505
11597W        W42813  17.986   8.883   7.068 -0.3699 -0.0938  0.1319
11598W        W42814  21.918   0.655   9.500 -0.3442 -0.0035 -0.1093
11599W        W42815  23.317   3.966   7.692 -0.1376  0.1495  0.1286
11600W        W42816  18.165  14.008   3.225  0.1722  0.1698  0.2092
11601W        W42817  14.041  19.975   1.125  0.1914  0.3298 -0.1434
11602W        W42818  21.605   1.793   0.916 -0.2206  0.3736  0.0325
11603W        W42819  18.257  13.128   7.566 -0.0381 -0.0112 -0.3014
11604W        W42820  16.692  24.692   1.143 -0.1622 -0.1091 -0.2158
11605W        W42821   9.946  19.522   8.866  0.0286 -0.1966 -0.0181
11606W        W42822   1.972  26.494   9.174  0.2633  0.3538  0.1189
11607W        W42823  13.615  18.080   9.644 -0.3183  0.1958 -0.1158
11608W        W42824  11.087  22.416   0.009 -0.1521  0.0622 -0.0560
11609W        W42825  14.886  27.410   2.823 -0.0614  0.2612  0.1022
11610W        W42826  13.621  23.530  10.207 -0.3388  0.3584  0.0630
11611W        W42827  22.720  14.916   9.863  0.1586 -0.0393  0.0362
11612W        W42828   9.350  22.362   9.652  0.1081 -0.1442 -0.0412
11613W        W42829  11.824  24.529  10.317  0.0103  0.2778  0.2124
11614W        W42830  21.285   1.435   8.590  0.0389 -0.1708 -0.0966
11615W        W42831  21.229  21.214  10.308  0.5191 -0.1313  0.0302
11616W        W42832   1.074   0.502   9.196 -0.1280  0.0760  0.0149
11617W        W42833   5.413  10.042   0.524 -0.2427  0.0778 -0.0591
11618W        W42834  16.101  25.948   7.541 -0.2177 -0.0348  0.1703
11619W        W42835  26.060  18.208   3.130  0.1142 -0.1486 -0.1326
11620W        W42836   1.971   8.105   0.157 -0.1635  0.1482 -0.1964
11621W        W42837  16.611  16.799   1.807 -0.2894  0.5269 -0.1514
11622W        W42838  18.953  20.104  10.514 -0.2615  0.0601  0.1588
11623W        W42839   1.646   2.694   8.936  0.2025  0.0425 -0.3303
11624W        W42840  10.902  23.587   2.991  0.4530  0.2832  0.2519
11625W        W42841   2.738   5.296   3.112  0.0961  0.1262 -0.0783
11626W        W42842  26.926  20.344   7.195 -0.1036 -0.0082 -0.0259
11627W        W42843   9.026   4.411   8.517 -0.2179  0.0491  0.1007
11628W        W42844  11.205  23.014   9.885  0.0312  0.1356  0.2145
11629W        W42845  12.648   3.351   8.328 -0.0141 -0.1820  0.1337
11630W        W42846  25.244   3.957   3.670  0.0429 -0.0824  0.2055
11631W        W42847  10.041  19.962  10.461 -0.0484  0.0479 -0.0832
11632W        W42848  19.378   5.058   9.959  0.1657  0.0174 -0.3131
11633W        W42849   2.240   0.138   2.010  0.0341  0.1584 -0.0118
11634W        W42850  19.109  14.386   6.990  0.2111 -0.5456  0.0508
11635W        W42851  20.251   3.932   1.287  0.0190  0.0291 -0.1823
11636W        W42852  14.771   0.412   3.676 -0.2288  0.0902 -0.1429
11637W        W42853   4.151  20.237   1.099 -0.1925 -0.0239  0.0759
11638W        W42854  10.585   1.740   9.086  0.0381 -0.0172 -0.0609
11639W        W42855  23.675   9.146   0.535  0.2995 -0.1126  0.2227
11640W        W42856  26.949   8.750   8.472  0.2563 -0.0320 -0.0390
11641W        W42857   4.437  19.721   8.881  0.1648 -0.0397 -0.0367
11642W        W42858   4.340   3.610   2.175 -0.1472  0.0501  0.0217
11643W        W42859   2.658  19.504   8.275 -0.0413 -0.0921  0.1079
11644W        W42860  13.079  14.539   9.508  0.0604 -0.0993 -0.0358
11645W        W42861   7.579  13.993   7.041 -0.1339  0.0721 -0.0902
11646W        W42862  24.061  21.071   0.058  0.1300 -0.2147  0.2764
11647W        W42863  24.542  17.374   3.856  0.1744 -0.0286 -0.2092
11648W        W42864  27.347   3.495  10.222  0.4732  0.0980 -0.0928
11649W        W42865   7.989  22.170  10.215  0.0734  0.2219  0.2982
11650W        W42866  25.194   6.969   7.776 -0.1553  0.1930  0.0199
11651W        W42867   8.037   8.716   9.698 -0.1580 -0.0626  0.1456
11652W        W42868   3.495  20.754   9.813 -0.0646  0.2378  0.0511
11653W        W42869   0.182   7.388  10.176  0.5794  0.1091  0.1137
11654W        W42870  22.922   2.632   2.540  0.1398 -0.1490 -0.0289
11655W        W42871  26.511  17.518   3.734  0.2909 -0.3048  0.0981
11656W        W42872  23.236   7.669   8.951 -0.0627 -0.0855 -0.0037
11657W        W42873   9.475   9.847   8.303  0.2223  0.0829 -0.0218
11658W        W42874  15.259  20.056   2.086 -0.1497 -0.0682  0.1582
11659W        W42875   2.575  26.646   3.419  0.0580  0.0031  0.0457
11660W        W42876   7.428  15.359  10.500  0.0413 -0.1558 -0.1250
11661W        W42877  11.562   9.485   2.699  0.0655  0.1138 -0.2670
11662W        W42878  27.306  19.900   2.754 -0.1416  0.0883  0.2142
11663W        W42879   4.680  27.490   7.748  0.0299  0.3084 -0.3186
11664W        W42880   1.334   1.237   9.066 -0.0950 -0.2361 -0.4203
11665W        W42881   7.496  22.633   9.119 -0.0968 -0.4257 -0.0994
11666W        W42882  26.049   0.286   7.976  0.3632  0.1754 -0.2878
11667W        W42883  15.642   5.841   7.440 -0.2253 -0.0634 -0.0677
11668W        W42884  21.738  21.867  10.371  0.0396 -0.2459 -0.1538
11669W        W42885  15.548  20.916   8.729  0.3221 -0.0676 -0.1685
11670W        W42886  14.012   2.840   1.159  0.0996 -0.2697  0.3430
11671W        W42887  11.434  16.357   1.659 -0.3499 -0.1056 -0.0440
11672W        W42888   0.981  14.448   2.547  0.1804 -0.2281  0.2338
11673W        W42889   0.847  26.134  10.239  0.1738  0.0521  0.0680
11674W        W42890  15.225  13.351   7.053  0.1488 -0.0387  0.2088
11675W        W42891  16.786  21.476   0.496  0.1257 -0.3223 -0.1206
11676W        W42892  25.939  20.596   9.108 -0.0446  0.2284  0.3228
11677W        W42893  24.967   0.195   2.799 -0.2642 -0.1720 -0.1362
11678W        W42894  19.947  20.159   7.956  0.0338  0.2080  0.0805
11679W        W42895  10.686   5.293   2.190 -0.1336  0.0347 -0.0061
11680W        W42896   1.629  16.050   8.921 -0.1229  0.0549 -0.0131
11681W        W42897  21.585   5.342   1.332  0.3003  0.0120 -0.2255
11682W        W42898   9.137  10.819   8.838 -0.1236 -0.2088  0.0467
11683W        W42899  13.844   0.616   3.015  0.1097  0.2634 -0.0469
11684W        W42900   8.069   5.144   8.072 -0.0280  0.2331  0.0048
11685W        W42901  19.907  23.963   8.488 -0.6317  0.2818 -0.0819
11686W        W42902   0.799  27.529   1.816 -0.4714 -0.2476  0.3217
11687W        W42903  25.123   3.666   9.542 -0.3089 -0.0066 -0.2456
11688W        W42904   2.709   8.692  10.396 -0.1881 -0.1984  0.2638
11689W        W42905   4.383  22.397   9.972 -0.3917 -0.3279  0.0133
11690W        W42906  26.915  19.555   1.491 -0.1402  0.3979  0.0237
11691W        W42907  27.571   5.537   9.979 -0.1147  0.2403 -0.2742
11692W        W42908  15.987   8.978   1.230 -0.2605 -0.2243  0.1254
11693W        W42909   5.917  21.887   9.180  0.1109 -0.0843  0.2635
11694W        W42910   5.715  11.794   0.770  0.0961 -0.1920 -0.0164
11695W        W42911  13.349  23.788   2.906  0.0407  0.2117 -0.2021
11696W        W42912  18.876  21.815  10.124 -0.3074  0.1659 -0.0101
11697W        W42913  21.769   5.291   3.510 -0.1392  0.2204  0.1786
11698W        W42914  11.238   8.519   2.326  0.0671 -0.0428 -0.1695
11699W        W42915  11.005   7.940   7.377  0.1201 -0.3067  0.1881
11700W        W42916  25.635   3.030   4.067  0.1221  0.0042 -0.0152
11701W        W42917  10.188   8.977   8.250 -0.0858  0.3283 -0.0125
11702W        W42918  13.966   7.091   2.831  0.1558 -0.2738  0.2039
11703W        W42919  16.922  18.803   9.908 -0.2705 -0.2732 -0.1276
11704W        W42920   0.509   7.918   0.406 -0.1272 -0.0107  0.2081
11705W        W42921  16.724   4.493   7.834  0.0645 -0.0797  0.4183
11706W        W42922   6.741   7.191   9.369  0.1640  0.0269  0.3961
11707W        W42923  18.731  10.371   8.500  0.2894 -0.0763  0.1096
11708W        W42924  19.995  14.044   0.902  0.0422  0.0229 -0.0374
11709W        W42925  25.969   8.621   3.285  0.2072 -0.1072  0.1922
11710W        W42926  12.201   1.259   9.430  0.0606 -0.1526 -0.0101
11711W        W42927  10.874  26.495   2.971 -0.0406 -0.1396  0.1448
11712W        W42928   8.289  14.543   2.092 -0.1161 -0.0018 -0.0345
11713W        W42929   7.591  17.446   9.036 -0.2800  0.0618 -0.0577
11714W        W42930   1.698   0.641   3.877  0.0568 -0.0603  0.0295
11715W        W42931   0.835  26.440   9.357 -0.4418  0.3213  0.1320
11716W        W42932  19.908  20.597   0.064 -0.2838 -0.2533 -0.0409
11717W        W42933  21.847  14.929   2.816 -0.2240  0.0414 -0.1615
11718W        W42934   8.137  12.337   1.668  0.0276  0.0293 -0.0109
11719W        W42935   0.322  25.572   2.994 -0.0242  0.1022 -0.0660
11720W        W42936  22.556  20.407   1.616  0.2792  0.0679 -0.1133
11721W        W42937  24.210  13.939   9.041 -0.1855  0.0696  0.1683
11722W        W42938  21.124  20.699   7.839 -0.2284  0.0024 -0.1445
11723W        W42939   9.424   7.905   3.497 -0.4256 -0.0352  0.2207
11724W        W42940  18.486  15.433   1.238 -0.0586  0.0838 -0.1716
11725W        W42941  21.078  14.503   7.918  0.2555  0.3584  0.0005
11726W        W42942   1.935  20.361   8.640 -0.1892  0.0297  0.3342
11727W        W42943   9.207  19.322  10.219  0.0174 -0.0656 -0.0247
11728W        W42944  11.614  16.227   8.754 -0.0451 -0.0847  0.1369
11729W        W42945  21.673   9.920   9.014 -0.0703  0.0486  0.0555
11730W        W42946   9.380  19.854   8.323  0.2178  0.1658 -0.0480
11731W        W42947  14.075  21.930   1.794  0.1177  0.2474  0.1877
11732W        W42948  20.501   8.615   2.441 -0.3699  0.2234 -0.2652
11733W        W42949  20.406  15.423   0.811 -0.2073 -0.0391  0.1806
11734W        W42950  15.981   6.119  10.022 -0.2234 -0.0600 -0.2934
11735W        W42951   7.833   8.901   8.001  0.0988  0.0281 -0.1198
11736W        W42952  10.115   9.167   9.462  0.3164  0.0819  0.0460
11737W        W42953   8.349   8.675   8.860  0.1300  0.2239  0.3385
11738W        W42954  20.559   0.244   0.669  0.0968 -0.2098 -0.0963
11739W        W42955  19.376   2.558   8.297  0.0229 -0.3081  0.2564
11740W        W42956   0.919  26.878   9.898 -0.1701  0.2788  0.0520
11741W        W42957  13.097  24.851   1.443  0.3792 -0.2995  0.0560
11742W        W42958   3.632   2.799   3.712  0.0028 -0.0704 -0.0509
11743W        W42959   4.491  17.124   1.711 -0.3928  0.1495  0.0228
11744W        W42960  18.392  21.984  10.123 -0.0101 -0.3200 -0.0017
11745W        W42961  24.924  25.186  10.519  0.1826 -0.1519 -0.0147
11746W        W42962  17.062   2.713   8.041 -0.0874 -0.3679  0.0035
11747W        W42963   2.364  11.430   2.909  0.0289 -0.1078  0.0007
11748W        W42964  25.631  17.428   1.116  0.0235 -0.0991 -0.1399
11749W        W42965  19.528   8.800   8.289 -0.2013 -0.2428  0.3023
11750W        W42966  16.671  11.181   9.033  0.1594  0.1727  0.0923
11751W        W42967  24.460  21.570   7.735 -0.1720 -0.1525  0.2717
11752W        W42968  20.227   6.832   1.670  0.1346  0.1665  0.0956
11753W        W42969  17.535  24.648   7.830  0.0552 -0.0986  0.2810
11754W        W42970  10.171   8.911   0.917  0.1438  0.1224 -0.0341
11755W        W42971   9.889   8.294   2.057 -0.3602 -0.3902  0.0745
11756W        W42972  21.431   2.300  10.041  0.0395  0.1746  0.1893
11757W        W42973   2.557  20.870   8.517 -0.0506 -0.1237  0.2615
11758W        W42974  13.361  14.051   8.709  0.0404  0.1490  0.2484
11759W        W42975  11.066  14.445   8.356  0.3102 -0.0719 -0.1434
11760W        W42976  24.592  23.851   9.401 -0.2358 -0.0946  0.0829
11761W        W42977   2.517   9.128   9.203  0.1274  0.1394 -0.2605
11762W        W42978  12.929   0.696   1.196 -0.1491 -0.1008 -0.5502
11763W        W42979   7.574  13.929   8.125 -0.1935  0.0019 -0.0517
11764W        W42980  27.077  22.746   2.094 -0.2669  0.1481 -0.0813
11765W        W42981   7.740   9.139   0.344  0.0318 -0.0123  0.0176
11766W        W42982   7.542   3.510   1.335  0.0485  0.0716 -0.0974
11767W        W42983   9.923  10.622   2.543 -0.0110 -0.1897 -0.0928
11768W        W42984  15.846  19.948   8.957 -0.0432 -0.1356 -0.0313
11769W        W42985  12.006  21.904   3.484 -0.0063 -0.0281 -0.1423
11770W        W42986  14.236   3.755   8.034 -0.2459  0.3363  0.0158
11771W        W42987  21.997  11.767   3.758  0.0736 -0.1054 -0.3731
11772W        W42988   0.459  19.649   1.523 -0.2282 -0.1400 -0.0005
11773W        W42989  21.177  19.741   3.200  0.0841  0.1227 -0.1704
11774W        W42990  15.438   4.944   8.990 -0.2380 -0.0134 -0.1007
11775W        W42991   7.524  10.055   9.225  0.1404  0.1616  0.0688
11776W        W42992  17.250  19.185   0.323 -0.0554 -0.2206  0.1401
11777W        W42993  27.267  22.686   7.734  0.0216  0.0109 -0.3109
11778W        W42994   6.220  19.846   8.503 -0.5083  0.2762 -0.1593
11779W        W42995  11.246   3.575   8.631  0.1691 -0.3175 -0.0790
11780W        W42996  10.101   2.317   7.878 -0.0821 -0.0342  0.0486
11781W        W42997   7.569  16.058  10.143 -0.0252  0.2663  0.2090
11782W        W42998   6.993   4.124   7.091  0.1684 -0.5911  0.1568
11783W        W42999  10.033   7.986   1.756  0.2585  0.1649  0.0191
11784W        W43000  18.938  10.798   1.774  0.0631  0.1294 -0.2303
11785W        W43001   8.484  17.376   8.653 -0.3102  0.3921  0.1208
11786W        W43002   5.894  19.394   1.056 -0.2629 -0.2095  0.0536
11787W        W43003   3.203  14.631   1.338  0.0442  0.0353  0.1045
11788W        W43004   3.931   4.601   9.185  0.0303 -0.1007 -0.0818
11789W        W43005   5.838  19.624   2.455 -0.0098 -0.0654  0.0895
11790W        W43006  12.286  22.024   9.122 -0.3307 -0.0540 -0.0767
11791W        W43007  11.068   4.388   2.650 -0.1177  0.0412  0.3905
11792W        W43008  23.185  10.675   3.096 -0.0255  0.1667 -0.0739
11793W        W43009  17.529   7.689  10.461  0.0389  0.3015  0.0088
11794W        W43010   7.126   7.240   2.220  0.2584 -0.0492 -0.1608
11795W        W43011   5.671   3.243   8.653  0.3971  0.3283 -0.5487
11796W        W43012   9.219  24.310   8.639 -0.0327  0.2774  0.3216
11797W        W43013   8.048  13.679   1.377 -0.0757  0.1718  0.0517
11798W        W43014   1.394  15.728  10.147 -0.2964 -0.0530 -0.0766
11799W        W43015   8.947   4.934   9.899 -0.0696  0.0019 -0.0760
11800W        W43016  23.903   3.040   1.344 -0.0657  0.0640  0.0754
11801W        W43017  15.507  10.788   9.040 -0.0723  0.1917 -0.1839
11802W        W43018  16.437  16.931  10.229  0.2644 -0.1604 -0.0764
11803W        W43019  10.016  11.057   8.468 -0.1726 -0.1030  0.1890
11804W        W43020  23.936  17.808   1.590  0.0105 -0.0583  0.0027
11805W        W43021  25.994   5.025   1.744 -0.0136  0.1600  0.1889
11806W        W43022  11.999  11.169   9.107  0.0365  0.1209 -0.1534
11807W        W43023   1.099  10.542   8.939  0.0882  0.0343  0.2333
11808W        W43024  15.293  10.231   2.092  0.1269  0.2865  0.0356
11809W        W43025  17.812   2.410   1.833 -0.2092 -0.0179  0.0105
11810W        W43026  11.255  19.735   9.689  0.0738  0.0074  0.0567
11811W        W43027   5.375  11.389   0.590 -0.3434 -0.1834 -0.0849
11812W        W43028   0.773   6.504  10.388 -0.1190 -0.0176 -0.0760
11813W        W43029  16.231  26.276   3.222  0.0353  0.0820  0.2058
11814W        W43030  25.979  23.790   1.259  0.0226 -0.3061  0.0859
11815W        W43031  24.117  25.363   7.965 -0.2912  0.0624 -0.0003
11816W        W43032   8.535   1.457   3.779 -0.0017  0.0533 -0.3175
11817W        W43033  19.930  16.610   2.030  0.0721 -0.0315  0.0616
11818W        W43034  15.890  13.528   8.985 -0.3189  0.0887 -0.0198
11819W        W43035  21.765   3.670  10.139  0.0367 -0.0337  0.4063
11820W        W43036  25.667  26.163   3.253  0.0800 -0.2039 -0.1619
11821W        W43037   1.123   1.557   8.620  0.0746 -0.0697 -0.5263
11822W        W43038  21.853  24.765   9.634 -0.4596 -0.2390  0.0981
11823W        W43039  20.809  14.092   8.206 -0.1306  0.1776 -0.0153
11824W        W43040   8.300  23.011   9.181  0.0529  0.0548 -0.0693
11825W        W43041   7.554  21.702   1.477  0.1801  0.3918  0.4732
11826W        W43042  20.783   9.702   9.612 -0.0648  0.0143 -0.1396
11827W        W43043   2.182  19.380   0.584  0.2357 -0.0573  0.1487
11828W        W43044  11.217   2.005   1.047 -0.1071  0.0613 -0.2465
11829W        W43045  18.360  21.987   2.375 -0.0102  0.0611 -0.1122
11830W        W43046  15.667   0.718   0.018 -0.1139  0.1375 -0.0651
11831W        W43047   2.951   2.168   2.167  0.1187  0.1255 -0.0037
11832W        W43048  22.051   7.158   0.921 -0.2275  0.4141  0.1109
11833W        W43049   5.263  16.030   0.035 -0.0974  0.0045 -0.2548
11834W        W43050   8.084  14.257   1.532 -0.1059 -0.1517  0.0461
11835W        W43051  13.949  15.699   1.810 -0.2378  0.0741 -0.2398
11836W        W43052  22.672   2.350   1.628  0.1631  0.1405  0.0151
11837W        W43053  27.166  19.670   0.615 -0.0339 -0.0961 -0.2416
11838W        W43054  14.313   8.383   0.538  0.0645 -0.0682  0.0611
11839W        W43055   7.110   7.587   0.306 -0.2193  0.1061 -0.0787
11840W        W43056  26.458  15.046   2.513  0.0248 -0.0227 -0.1968
11841W        W43057   8.327  14.345   8.497 -0.5039  0.0283 -0.2074
11842W        W43058  12.632   7.762   0.960 -0.2362 -0.0109 -0.1233
11843W        W43059  14.917  24.475   8.539 -0.0700 -0.0980 -0.0392
11844W        W43060  26.703   5.947   1.542  0.1384 -0.2572  0.3123
11845W        W43061  14.322  26.991   8.319 -0.1663 -0.0623 -0.1312
11846W        W43062  24.958  21.107   1.816 -0.2041  0.2450 -0.0960
11847W        W43063  24.096  11.902   9.193  0.1054  0.0328  0.3652
11848W        W43064  25.667   8.728   3.737  0.0756 -0.0832  0.1854
11849W        W43065  13.652  24.699   1.452  0.3011 -0.0190  0.0805
11850W        W43066   5.326  13.346   9.109  0.0431 -0.2172  0.0881
11851W        W43067   0.858  13.011   0.367 -0.1646 -0.2427  0.3266
11852W        W43068   6.096  19.876   0.820  0.1124  0.0282  0.2487
11853W        W43069  18.708  10.289   1.804 -0.1496 -0.0385  0.1116
11854W        W43070  16.962  24.235   1.169  0.1371  0.2123 -0.1053
11855W        W43071   8.722  12.261   0.142  0.0692  0.1351 -0.1061
11856W        W43072  22.759  10.774   0.569 -0.1230 -0.1960  0.1315
11857W        W43073  17.072   4.697   9.462 -0.0297  0.1515 -0.0947
11858W        W43074   4.393  16.330   3.221 -0.1551  0.2247 -0.3695
11859W        W43075  19.694  14.047   9.297 -0.2016  0.3116 -0.0638
11860W        W43076  13.083   5.119   3.174  0.1013 -0.1105 -0.0999
11861W        W43077  23.365   4.787   0.801 -0.3179  0.1917  0.0105
11862W        W43078  18.348  15.679   7.964  0.1186  0.1140  0.0995
11863W        W43079  10.912  14.435   8.865 -0.0999  0.2564 -0.0612
11864W        W43080  26.407   0.564   3.142 -0.3379  0.0180  0.3011
11865W        W43081  15.097  21.532   1.980 -0.2215  0.1893  0.1230
11866W        W43082   3.433  25.645   2.140  0.0823  0.0660 -0.0612
11867W        W43083  16.677  16.021   1.419 -0.3759 -0.1432 -0.0798
11868W        W43084  11.279  23.548   1.082 -0.0540  0.0166 -0.0553
11869W        W43085  22.993  22.793   9.686 -0.2041 -0.1778  0.1975
11870W        W43086   4.791   4.467   2.581 -0.1487 -0.1234 -0.0323
11871W        W43087   9.604   8.564   1.456 -0.2536 -0.2259 -0.1138
11872W        W43088  10.660  15.769   8.041  0.1496 -0.2403 -0.0349
11873W        W43089  22.049  23.037   9.536  0.3526  0.0560  0.2742
11874W        W43090  15.624  14.799   7.786 -0.0936 -0.1565  0.1172
11875W        W43091  26.777   1.836   9.798  0.1058  0.1381 -0.3684
11876W        W43092  24.579  12.910   9.670 -0.0511 -0.0144 -0.0894
11877W        W43093  24.770  16.237   2.728  0.2118  0.4690  0.3282
11878W        W43094   6.398  18.269   1.041  0.1725 -0.1906  0.1760
11879W        W43095  24.165   9.287   2.805  0.2431 -0.0948 -0.0058
11880W        W43096  20.858  16.438   0.235 -0.0361 -0.2281 -0.3924
11881W        W43097  11.535   7.173   3.851  0.0212  0.1052 -0.1837
11882W        W43098  11.371  14.870   1.927 -0.2129  0.0069 -0.0837
11883W        W43099   9.256   5.091   6.917  0.1551 -0.0061 -0.0191
11884W        W43100  26.130   0.351   0.048 -0.0963 -0.0928  0.0299
11885W        W43101   8.790  25.938   2.073  0.2401 -0.1260 -0.0537
11886W        W43102  16.485  24.975   9.584 -0.0046 -0.2762  0.0263
11887W        W43103   0.760   4.973   9.607 -0.1270  0.0240 -0.0173
11888W        W43104  16.842   4.608   0.072 -0.0958 -0.0741 -0.1427
11889W        W43105  27.191   5.785   1.406 -0.1629 -0.1955 -0.0182
11890W        W43106  24.299  16.612   0.893 -0.1421 -0.0761 -0.1164
11891W        W43107  15.154   2.692   2.601  0.0026  0.0570  0.4627
11892W        W43108  14.741  23.269   3.830 -0.6116 -0.0691  0.2224
11893W        W43109  14.272   3.886   1.392 -0.0595  0.3323  0.1047
11894W        W43110   5.290  16.808   2.024 -0.0955 -0.0371  0.3241
11895W        W43111  10.346  24.647   1.847 -0.2173 -0.0838  0.1766
11896W        W43112  19.556  10.920   0.436 -0.3677 -0.5376  0.0562
11897W        W43113  11.188   3.743   0.137  0.1876 -0.0110  0.0108
11898W        W43114  17.327  20.014   8.520 -0.1198 -0.0496 -0.5524
11899W        W43115   2.214  26.131   7.950  0.2230  0.0304 -0.1237
11900W        W43116   6.126  10.906   8.028  0.1755 -0.0523  0.2329
11901W        W43117   6.176   3.983   1.536 -0.0626  0.0229  0.3489
11902W        W43118  10.181   2.258   1.695  0.2215  0.0881  0.3452
11903W        W43119  10.346  25.717   7.337  0.1074  0.0148 -0.5048
11904W        W43120  17.889   6.622   3.132  0.0278  0.1756 -0.0672
11905W        W43121  20.844  17.883   0.958  0.1012  0.0638 -0.0377
11906W        W43122  10.117  18.734   0.753  0.0667 -0.0768 -0.3117
11907W        W43123  26.166  20.040   3.362  0.3926  0.0315 -0.0172
11908W        W43124  24.146  16.461   8.433  0.1340 -0.0971 -0.1000
11909W        W43125   1.345   2.923   8.659 -0.2050  0.0186  0.0012
11910W        W43126  10.876  15.683   9.267  0.0113 -0.1156  0.0817
11911W        W43127   3.197   6.814   1.666  0.1654  0.0707 -0.0077
11912W        W43128  25.556  22.943   9.904 -0.0133 -0.1525  0.1233
11913W        W43129  26.025  11.512   8.804 -0.0712 -0.0447 -0.1681
11914W        W43130  17.523  19.397   3.069  0.2343 -0.2640 -0.1869
11915W        W43131  24.881  17.249   1.878  0.2039 -0.2332 -0.2016
11916W        W43132   1.244   9.864   2.056  0.0451  0.1411  0.2168
11917W        W43133  12.859  10.706   3.540 -0.0097 -0.1069  0.0251
11918W        W43134  27.221   7.111   9.155  0.0977  0.0655  0.0675
11919W        W43135   0.349   5.355   1.393  0.1524  0.0736 -0.1276
11920W        W43136  22.473   3.103   0.931  0.1637 -0.0769 -0.1703
11921W        W43137  26.505  18.398   9.387 -0.0800  0.1366 -0.1816
11922W        W43138  15.589   9.184   0.044 -0.1199 -0.3776  0.0342
11923W        W43139   0.778  18.256   3.449  0.1448  0.2997 -0.5162
11924W        W43140   3.445   0.335   8.520 -0.1293 -0.1772  0.1763
11925W        W43141   5.500   9.765   7.827 -0.1452 -0.4793  0.1721
11926W        W43142   5.495   6.928   0.225  0.2777  0.2836 -0.3123
11927W        W43143   7.490  18.397   3.053 -0.1240  0.2277 -0.0171
11928W        W43144   0.355  22.680   9.467 -0.2115  0.1789  0.1122
11929W        W43145  21.403   5.003   0.258  0.2994  0.0867 -0.1888
11930W        W43146  15.226   5.381   8.838  0.2278  0.1404 -0.1005
11931W        W43147  24.710  13.330   9.057 -0.2367 -0.2924 -0.0328
11932W        W43148   4.511   2.240   0.583 -0.0483 -0.1293  0.1001
11933W        W43149  27.261  13.566   0.955 -0.2015  0.0758  0.1542
11934W        W43150  10.929  22.682   0.975 -0.2169 -0.1950 -0.2065
11935W        W43151   9.593  16.412   2.009  0.4085 -0.1698 -0.0193
11936W        W43152  17.259   1.024   1.440 -0.3538  0.2748  0.1290
11937W        W43153  22.679  14.532   9.370 -0.2907 -0.1260 -0.0729
11938W        W43154   7.092  26.210   3.365 -0.0327  0.1970  0.0983
11939W        W43155  24.209  14.809   9.588 -0.1588 -0.1595  0.1001
11940W        W43156   8.541  19.682   8.240 -0.1171 -0.0955  0.0378
11941W        W43157   5.612   0.270   1.855 -0.0490  0.3328  0.0484
11942W        W43158   2.689   6.420   0.677  0.0433 -0.0505 -0.2536
11943W        W43159  13.764   4.740   3.460  0.1239 -0.1357  0.2404
11944W        W43160   2.704   5.285   8.773  0.0177  0.0473  0.1504
11945W        W43161  15.814  26.959   0.295 -0.2794  0.0194  0.0838
11946W        W43162  20.809  13.996   1.860 -0.1023  0.1541  0.4397
11947W        W43163   6.993  15.948  10.405  0.1892 -0.2802 -0.1562
11948W        W43164  11.900  16.613   2.518  0.0330  0.1357  0.2176
11949W        W43165  21.179   5.300  10.349 -0.1344 -0.1180  0.0672
11950W        W43166   8.533  18.619   2.404 -0.0209 -0.0224 -0.0848
11951W        W43167  16.364  13.225  10.264  0.0648  0.0138  0.1381
11952W        W43168   0.941  17.531   2.541  0.0340 -0.0065  0.0985
11953W        W43169   6.360   3.680   8.734  0.0435  0.1240  0.0297
11954W        W43170  26.563  12.740   8.749  0.2104 -0.1178  0.0575
11955W        W43171   3.474   8.569   0.937  0.1046 -0.0164  0.0036
11956W        W43172  10.417  20.108   8.261 -0.3048  0.0875 -0.0750
11957W        W43173   6.909  11.628   9.196  0.0040  0.0754  0.0912
11958W        W43174  12.515  11.504   1.629 -0.0532  0.2104  0.0862
11959W        W43175  26.441   8.576   0.923  0.2727  0.1445 -0.1285
11960W        W43176  21.417  23.677   2.267  0.0188 -0.0306 -0.1116
11961W        W43177  25.090   9.349   0.474  0.0512  0.1484  0.0431
11962W        W43178   1.879  16.651   8.188 -0.1517  0.2883 -0.1167
11963W        W43179   1.127   1.710   8.149 -0.1012 -0.0203  0.0662
11964W        W43180   6.440   4.906   8.909 -0.0685  0.0132  0.1127
11965W        W43181   5.743   5.644   3.141 -0.1171  0.0557  0.0617
11966W        W43182  17.775  27.236   7.684  0.1029  0.2267 -0.1454
11967W        W43183  14.702   1.161  10.180 -0.1744 -0.0890 -0.1832
11968W        W43184   7.686   1.036   8.977  0.1617 -0.2848  0.1101
11969W        W43185  26.711  20.262   8.848 -0.0612  0.0326  0.0198
11970W        W43186   8.234  19.534   1.790  0.2029  0.0781  0.0308
11971W        W43187   9.628  20.966   2.429 -0.0843 -0.1395 -0.1636
11972W        W43188   4.129  19.783   7.646  0.2930 -0.1261  0.2966
11973W        W43189  11.560  24.559   7.274  0.1518 -0.3209  0.0920
11974W        W43190  15.999  13.204   2.092  0.1680 -0.1878 -0.0513
11975W        W43191  12.817  10.407   4.017  0.0186  0.4811 -0.0146
11976W        W43192  17.054  18.917   1.057 -0.0399  0.0200  0.1129
11977W        W43193  17.539  15.395   9.102  0.0670  0.0638  0.0595
11978W        W43194  18.516   1.492   7.781  0.0055  0.1215 -0.1339
11979W        W43195  19.352  17.897   8.477 -0.2991  0.0782 -0.0084
11980W        W43196  22.003  26.078   9.844 -0.0465 -0.4361 -0.1368
11981W        W43197  22.315   8.912   0.775 -0.1984 -0.0679 -0.0361
11982W        W43198   0.292  10.096   3.709  0.1780 -0.1512  0.0858
11983W        W43199   3.121   8.575   8.618 -0.2346 -0.3769  0.2857
11984W        W43200   3.247  15.266   2.581  0.1715  0.0524  0.0919
11985W        W43201   3.604   2.592   1.586  0.1095 -0.5614  0.0293
11986W        W43202  24.492   9.603   2.199  0.1997  0.0126 -0.2174
11987W        W43203  17.401  12.514   0.657  0.1058  0.1137 -0.1641
11988W        W43204  14.881  23.265   2.892 -0.2753 -0.1775 -0.0115
11989W        W43205  14.284   4.087   2.184  0.3125 -0.0487 -0.1111
11990W        W43206  23.521   3.146   3.109 -0.3904 -0.1404 -0.0580
11991W        W43207  26.584  11.254   1.251  0.0397 -0.2949 -0.0156
11992W        W43208  22.608  24.544   2.887  0.3142  0.0987 -0.4053
11993W        W43209  13.511  17.557   0.541 -0.0010 -0.0084  0.0033
11994W        W43210  13.581   9.084   9.962 -0.2861  0.0118  0.2439
11995W        W43211  24.816  15.878   7.338  0.1838  0.0957  0.0889
11996W        W43212   0.141  20.831   3.111 -0.3032  0.0055 -0.1660
11997W        W43213  25.918  16.752   8.791  0.3970 -0.0194 -0.1037
11998W        W43214  20.658   7.954   8.554  0.0587  0.0744 -0.0479
11999W        W43215  11.214   5.862   0.193  0.2156  0.0768 -0.0239
12000W        W43216  18.965  25.907   9.259  0.2121  0.0234  0.0270
12001W        W43217  19.683   9.643   8.502 -0.1986  0.0298 -0.0367
12002W        W43218  23.295  20.876   1.540 -0.2273  0.2261  0.2432
12003W        W43219  12.784  22.734   1.100 -0.3196  0.0662 -0.1177
12004W        W43220   3.713   1.674   9.965  0.1508  0.2464 -0.2060
12005W        W43221   4.084  23.746   9.708 -0.0657 -0.3737 -0.2595
12006W        W43222  24.754   4.897   8.392  0.0659 -0.2424 -0.3670
12007W        W43223  24.492  23.880   7.680 -0.1324  0.0174 -0.0789
12008W        W43224   8.164  13.828   8.699  0.0024 -0.0764  0.1663
12009W        W43225  23.409  21.437   1.657 -0.1090  0.1252  0.2129
12010W        W43226  21.271  18.062   1.262  0.2466 -0.4389 -0.3561
12011W        W43227   9.683  17.806   1.003  0.0001 -0.1484  0.0316
12012W        W43228  25.643   6.988   0.977 -0.1467  0.1387  0.0016
12013W        W43229  25.603   1.635   3.538 -0.1076 -0.2413 -0.5853
12014W        W43230  21.653  14.137   8.453  0.1630  0.5094 -0.1879
12015W        W43231   8.389  22.360   0.016 -0.0752 -0.2297 -0.2529
12016W        W43232  18.655  16.110   8.121  0.1735  0.0667  0.0211
12017W        W43233  27.203  11.540   1.462 -0.4327  0.0512 -0.1339
12018W        W43234  14.442  11.886   9.379 -0.2664 -0.1066 -0.0412
12019W        W43235   1.380   6.684   8.574  0.0996 -0.1037  0.0143
12020W        W43236   3.558   1.478   3.460 -0.2675 -0.1926  0.3340
12021W        W43237  25.529  19.611   0.937 -0.0917  0.0583 -0.3516
12022W        W43238  20.632  16.820   1.238 -0.0576  0.1359 -0.1573
12023W        W43239   3.927  12.888   8.190  0.2299  0.0269 -0.0034
12024W        W43240   4.059  10.927   1.412 -0.2900 -0.1536 -0.0590
12025W        W43241  17.143   6.568   8.173 -0.0404 -0.0744 -0.3499
12026W        W43242   0.335   6.866   8.988  0.3599  0.0096 -0.0864
12027W        W43243  17.316   8.415   0.617 -0.0704 -0.0993 -0.1365
12028W        W43244  20.771   3.712   1.407 -0.1173 -0.3969 -0.1171
12029W        W43245  11.467   1.459   9.462 -0.2878  0.1166 -0.2433
12030W        W43246   0.583   2.581   9.870  0.1147  0.0834 -0.2056
12031W        W43247  10.232   2.538   8.810 -0.0832  0.2651  0.2779
12032W        W43248   2.794   7.118   1.813 -0.0891  0.2153  0.1026
12033W        W43249   8.509   5.127   0.636 -0.2499  0.1124 -0.1559
12034W        W43250  13.372  11.606   8.174 -0.1892 -0.1929  0.2733
12035W        W43251  22.327   1.053   0.214 -0.1837  0.0548  0.0739
12036W        W43252  24.572  26.106   9.721 -0.2116  0.2737 -0.1505
12037W        W43253  24.892   7.241   2.089  0.0602 -0.1028 -0.2334
12038W        W43254  26.391   4.919   2.043  0.1101 -0.0919  0.1113
12039W        W43255  10.813  20.977   7.467 -0.0141  0.0115  0.1254
12040W        W43256  20.903  21.771   4.099 -0.0901  0.0330  0.0538
12041W        W43257   5.266   6.879   7.048  0.1612  0.1461  0.1493
12042W        W43258  13.728  22.965   9.555  0.0240 -0.2763  0.1611
12043W        W43259  24.031   1.383  10.261 -0.3260  0.0983  0.2707
12044W        W43260  13.721  15.019   0.109  0.0378 -0.0901  0.0578
12045W        W43261  15.668  11.232   8.744  0.0923 -0.2307  0.2506
12046W        W43262  24.582  10.422   1.550  0.1469  0.1547 -0.1476
12047W        W43263  16.351  20.564   0.496  0.2066  0.2915  0.0375
12048W        W43264   9.417   3.141   0.829  0.3239 -0.2415 -0.0300
12049W        W43265   7.701  21.176  10.410 -0.0974  0.0833  0.0348
12050W        W43266  26.609  16.235  10.122  0.1312  0.4459  0.0789
12051W        W43267  16.124  17.848   9.851  0.0414  0.0530  0.0922
12052W        W43268  11.593  25.126  10.288  0.1598  0.2366  0.0189
12053W        W43269   4.960   5.547   7.910 -0.1054  0.1101  0.1100
12054W        W43270  13.912   6.492   0.978  0.0501  0.0932  0.0510
12055W        W43271  14.570   9.221   1.151 -0.1952  0.3919  0.2138
12056W        W43272  17.821  27.180   2.190  0.2617 -0.0698 -0.1584
12057W        W43273   2.620   6.383   8.603  0.4770 -0.1398  0.0195
12058W        W43274  17.865  24.725   0.552 -0.1382  0.1607 -0.0077
12059W        W43275  10.937  11.036   9.503  0.0193  0.2222  0.1763
12060W        W43276  24.584   6.453   2.794  0.0950  0.3102  0.0482
12061W        W43277  10.063  26.363   2.320 -0.2479  0.0109  0.2006
12062W        W43278   3.748   9.221   2.063 -0.2103 -0.0053  0.0035
12063W        W43279  18.270  24.070   1.210  0.2002 -0.1435  0.2635
12064W        W43280   6.485  14.055   9.803  0.0922 -0.0846 -0.0654
12065W        W43281  14.025   8.108   1.201  0.1306  0.1894 -0.0538
12066W        W43282   2.730   9.925   8.468  0.0051  0.1125 -0.0849
12067W        W43283  22.030  21.948   2.414  0.0497 -0.3369 -0.3347
12068W        W43284  27.353   3.185   1.086 -0.0961  0.2920 -0.0685
12069W        W43285  19.605  12.209   1.778  0.1945  0.1260  0.2906
12070W        W43286  19.448  20.150   8.012 -0.0678  0.0724  0.0021
12071W        W43287  15.548  23.038   1.045 -0.0406  0.1950 -0.0997
12072W        W43288  22.643  17.427   8.215  0.0667 -0.0045 -0.1269
12073W        W43289  18.444   6.639  10.468  0.0922  0.0961 -0.1081
12074W        W43290  12.014  26.276   0.892  0.0083  0.0432 -0.1478
12075W        W43291  16.510  24.772   1.675  0.0850 -0.1350 -0.1816
12076W        W43292  26.129  16.821   3.652 -0.0226 -0.1173  0.0486
12077W        W43293   0.816  15.345   0.200  0.1737 -0.0448  0.1631
12078W        W43294  23.440  23.080   9.311 -0.1295  0.3158 -0.1536
12079W        W43295  11.344  11.107   1.611  0.0839  0.3995  0.1968
12080W        W43296  19.289  19.432  10.109 -0.0899  0.2493  0.0676
12081W        W43297   7.751  27.179   7.779  0.2450 -0.2689  0.0614
12082W        W43298  21.955   0.026   9.077 -0.1999  0.0565  0.2567
12083W        W43299  11.875  10.538   0.881  0.1613  0.1727  0.0478
12084W        W43300  19.009   4.981   2.048  0.0492  0.1717 -0.2416
12085W        W43301  15.892  13.711   3.047  0.1417 -0.2570 -0.0617
12086W        W43302   2.755   6.672   3.935 -0.3041  0.2465  0.1988
12087W        W43303   3.007  21.470   0.143  0.2116  0.0623 -0.0198
12088W        W43304  23.882  24.761   2.604  0.3156  0.1475  0.0861
12089W        W43305   4.146  10.399   1.268 -0.1950  0.1273 -0.0180
12090W        W43306   5.055  17.330   0.921  0.1836  0.0963 -0.3263
12091W        W43307  25.829  14.539  10.512 -0.0238 -0.1039 -0.1257
12092W        W43308   7.098   4.374   7.974 -0.2859  0.2141 -0.0125
12093W        W43309  14.070   5.688  10.537 -0.0397 -0.0508  0.3501
12094W        W43310   5.515   0.789   1.795 -0.1785 -0.0826  0.2587
12095W        W43311   4.499   2.818   8.336 -0.1204  0.0518  0.1753
12096W        W43312  15.403   2.394   9.889  0.0756  0.0394  0.0066
12097W        W43313  25.843  24.515   8.728  0.0735 -0.2468  0.0254
12098W        W43314  14.396   7.427   1.643 -0.1670  0.0521 -0.0045
12099W        W43315   7.278   5.112   9.399  0.0892 -0.1806 -0.0838
12100W        W43316  18.662   1.997   1.904 -0.0838  0.2186 -0.0560
12101W        W43317  23.629  10.542   1.059  0.2745 -0.2666  0.0628
12102W        W43318  19.379  11.821   1.392 -0.0970 -0.0703  0.0233
12103W        W43319  13.380  17.027   2.259  0.0116  0.2513  0.1109
12104W        W43320  19.843  14.955   6.900 -0.0799 -0.2301  0.2438
12105W        W43321  13.197  23.368   2.725  0.0920 -0.1157 -0.0034
12106W        W43322   8.932  16.628   0.328 -0.1518 -0.2213  0.0523
12107W        W43323   5.832  17.912   2.396 -0.0415  0.3161 -0.1694
12108W        W43324   5.883  15.473   9.135  0.1160 -0.1724 -0.0446
12109W        W43325   8.178  18.849   0.857 -0.0481  0.0058  0.2501
12110W        W43326  12.252  18.027   9.937  0.4627  0.1339 -0.3006
12111W        W43327  18.023  23.850   2.657  0.0497  0.1619 -0.0463
12112W        W43328   7.738  10.757   1.891  0.0065 -0.0901 -0.2584
12113W        W43329  12.076   5.997  10.160  0.0220 -0.0176 -0.4824
12114W        W43330  19.580  12.663   7.896  0.0875 -0.1798  0.1494
12115W        W43331  11.459   2.693   0.376 -0.1358  0.0502  0.0373
12116W        W43332   2.322  21.915   1.066 -0.0262 -0.0818 -0.0725
12117W        W43333  24.368  22.969  10.507  0.2216 -0.1559 -0.2655
12118W        W43334  20.457   8.218   8.967 -0.3459  0.1891  0.0275
12119W        W43335  21.714   5.582   0.481 -0.0822  0.1704  0.2124
12120W        W43336   1.775   8.402  10.119 -0.3075  0.2326  0.1067
12121W        W43337  23.078   1.877   0.995  0.0122 -0.0875  0.1638
12122W        W43338  22.604   7.349   9.950  0.1229  0.1194  0.1217
12123W        W43339  17.046   3.749   9.406 -0.0441 -0.1176  0.0511
12124W        W43340  21.666  27.498   8.323 -0.0936 -0.3271  0.0311
12125W        W43341   9.949   4.517   8.678 -0.0411  0.1728 -0.1239
12126W        W43342  13.820  16.694   8.821  0.2202 -0.0997 -0.0881
12127W        W43343   2.054  17.670   0.267  0.0704 -0.1590  0.0880
12128W        W43344   6.031  21.132   3.327 -0.0504 -0.2025 -0.0718
12129W        W43345  25.948  11.354   8.339  0.2167 -0.1347 -0.0710
12130W        W43346   7.764  20.582   1.844  0.3647 -0.0002 -0.0009
12131W        W43347  17.111  25.484   1.815 -0.0581 -0.4295  0.0579
12132W        W43348  15.032  17.776   8.736 -0.1994 -0.2846  0.1859
12133W        W43349  27.433  15.544   7.767  0.2380 -0.3487 -0.1968
12134W        W43350  22.426  27.513   1.531  0.3016  0.0064  0.0350
12135W        W43351  26.343  18.889   2.777 -0.2236 -0.1286 -0.1071
12136W        W43352  11.473  13.157   9.449 -0.1124 -0.0902 -0.3071
12137W        W43353   4.205  23.957   2.339 -0.3014 -0.3607 -0.2402
12138W        W43354   7.818   4.259   9.036 -0.0223  0.1976 -0.2400
12139W        W43355   5.361  21.977  10.187  0.1669  0.1380  0.2338
12140W        W43356  13.232  27.477   9.016  0.3042 -0.2006  0.0436
12141W        W43357  15.400   7.819   9.133 -0.2233 -0.0554  0.1098
12142W        W43358  14.582  26.152   2.972  0.3107  0.1560 -0.1665
12143W        W43359   6.992  18.810   8.631  0.2068 -0.0164  0.0285
12144W        W43360  14.972  22.706   7.234  0.6665 -0.0854 -0.1750
12145W        W43361  14.284   6.216   8.063 -0.0154  0.0844 -0.0574
12146W        W43362   1.369  19.497   0.616  0.1175 -0.1072  0.0716
12147W        W43363  18.699   2.999   2.887  0.1558 -0.1010 -0.0278
12148W        W43364  26.282  10.419   8.096  0.0050  0.0929  0.1269
12149W        W43365  12.060  14.135   7.546 -0.0346  0.0593 -0.2330
12150W        W43366  18.000   9.635   1.321  0.0748  0.1420  0.1130
12151W        W43367  25.016   3.929   2.374 -0.0041  0.0697 -0.5431
12152W        W43368  16.874  22.497   1.209 -0.1003 -0.2585 -0.1489
12153W        W43369   8.426  12.627  10.000  0.2358 -0.1198  0.0168
12154W        W43370   2.741  10.462   9.793 -0.1031 -0.1222 -0.0281
12155W        W43371  14.623   0.899   2.255 -0.3292 -0.2202  0.2541
12156W        W43372  20.299  18.999   8.460  0.2101 -0.0427 -0.0158
12157W        W43373  27.573  26.196   8.030 -0.1280 -0.0037  0.1014
12158W        W43374  13.752   0.042   8.737  0.3863  0.1818 -0.2421
12159W        W43375  17.962  21.921   1.700  0.0918 -0.1821  0.0125
12160W        W43376   2.756  13.831   8.935  0.1491  0.0715  0.2570
12161W        W43377  16.246  23.517   9.408 -0.0232  0.0713 -0.3244
12162W        W43378  22.035   7.455   1.555  0.1518 -0.2183 -0.5023
12163W        W43379  12.392   7.791   1.796 -0.0907 -0.0029  0.0844
12164W        W43380  19.486  26.983   9.760 -0.2171 -0.3302 -0.0842
12165W        W43381  15.554   4.645  10.016  0.2669  0.1361 -0.2437
12166W        W43382  21.809  23.808   9.147 -0.1190  0.0047 -0.0117
12167W        W43383  21.687  14.340   0.849  0.1337  0.2327  0.1258
12168W        W43384   2.529   3.847   0.028  0.2128 -0.2188 -0.2130
12169W        W43385   0.635  15.949   7.639  0.0755  0.0459  0.0371
12170W        W43386  25.140  25.023   1.345  0.1951  0.0091  0.1952
12171W        W43387  11.247   8.328   9.027  0.0388  0.1008  0.0239
12172W        W43388   8.547  27.458   0.247  0.2535 -0.2310  0.0565
12173W        W43389  25.267   0.269   0.450  0.1734  0.1362 -0.1353
12174W        W43390   6.249   8.930   9.773 -0.0560 -0.0875 -0.0494
12175W        W43391  12.434   1.797  10.330 -0.4935 -0.0730  0.2356
12176W        W43392  16.669  20.267   2.103  0.1805  0.0604  0.1137
12177W        W43393  24.190  14.081   2.068 -0.2615 -0.2105 -0.0200
12178W        W43394  17.381  14.339   9.517 -0.2494  0.1026  0.0765
12179W        W43395   6.749  21.945   2.613 -0.0076 -0.2201 -0.3291
12180W        W43396   6.105  21.891   1.107 -0.0466 -0.1261 -0.1072
12181W        W43397  15.412  27.311   0.730  0.3098 -0.1411 -0.0605
12182W        W43398  26.788  24.281   2.295  0.0837  0.1543  0.0158
12183W        W43399  17.686   4.501   2.322  0.2228  0.0492  0.0782
12184W        W43400   4.770  27.085  10.144  0.3026 -0.2259 -0.0514
12185W        W43401  13.134  14.168   9.910  0.0242 -0.3740 -0.2547
12186W        W43402  16.510  20.894   9.326 -0.2506 -0.0365 -0.0785
12187W        W43403   0.494  21.343   0.410 -0.1278 -0.1587 -0.0306
12188W        W43404  15.505  12.999   1.244 -0.0504  0.0766  0.1128
12189W        W43405  25.787  21.931   0.852  0.2853  0.3490  0.0372
12190W        W43406  24.414  21.533   9.957 -0.1802  0.0859  0.1294
12191W        W43407  12.458  22.670   3.489 -0.2671  0.0271  0.0898
12192W        W43408   2.950   8.527   0.763  0.1253 -0.4365  0.0433
12193W        W43409  20.525  22.506   0.610 -0.0014  0.1021 -0.2420
12194W        W43410  21.377   6.282   1.933 -0.2647 -0.0288 -0.1719
12195W        W43411   2.095  21.081   1.114  0.2163 -0.3442 -0.4703
12196W        W43412   4.530  16.585   0.087  0.0309 -0.2876 -0.0557
12197W        W43413  14.925   9.184   9.167  0.1031  0.3117 -0.0286
12198W        W43414  18.846   0.822   3.833  0.0419 -0.2211  0.1066
12199W        W43415  12.264  17.043   0.439  0.2172 -0.2505  0.0307
12200W        W43416  16.600  19.292   3.540 -0.1062  0.2335 -0.1515
12201W        W43417   9.079  27.477   1.975  0.0391 -0.0184 -0.0012
12202W        W43418  20.255  21.070   2.062  0.0277  0.1311 -0.1629
12203W        W43419   2.391  20.182   0.872  0.0894 -0.2733 -0.0602
12204W        W43420   6.428   9.749   3.540  0.2211  0.2800 -0.1747
12205W        W43421  25.174  13.113   8.882 -0.0662 -0.2054 -0.0209
12206W        W43422   7.678  23.103   2.581  0.3421 -0.2625  0.0639
12207W        W43423  18.834  24.391   8.134  0.1192 -0.2411  0.0428
12208W        W43424  13.984   7.841   8.323 -0.3577 -0.1117  0.0266
12209W        W43425   4.915  16.924   0.022  0.3206  0.0034 -0.1414
12210W        W43426  10.164   0.272   0.149 -0.1464 -0.0551  0.1234
12211W        W43427  17.718  25.888   2.611  0.1909  0.1016  0.1293
12212W        W43428  18.799   2.809   7.993  0.1332 -0.0224 -0.0045
12213W        W43429   3.933  15.461   8.741  0.0718 -0.0619 -0.3065
12214W        W43430  17.777  18.578   8.296  0.0574  0.0424 -0.2646
12215W        W43431  11.532   1.828   2.032  0.1299  0.0081 -0.3213
12216W        W43432  26.176   9.887   0.864  0.2475  0.1865 -0.2500
12217W        W43433  13.020  24.795   2.226  0.1476  0.0390  0.1058
12218W        W43434   4.502  11.280   0.896 -0.0081 -0.0232 -0.1706
12219W        W43435  11.540   3.429   3.111  0.0737  0.2710 -0.2225
12220W        W43436  27.317   1.240   8.541  0.1121 -0.2363  0.0400
12221W        W43437  15.322  16.265   1.444  0.3947 -0.1077  0.2353
12222W        W43438   2.142  12.898   7.150  0.3711  0.1922  0.3279
12223W        W43439  26.449   7.884   9.422 -0.0996  0.0977 -0.2851
12224W        W43440  11.439  20.067   8.023 -0.2910 -0.0852 -0.2075
12225W        W43441   7.253   5.165   2.887  0.0338  0.0649  0.0763
12226W        W43442   6.411   9.840   0.414  0.1480 -0.0742 -0.1577
12227W        W43443   3.457   5.939  10.519  0.3774 -0.0108 -0.3459
12228W        W43444  24.060  10.846   0.866  0.3355 -0.3408 -0.2425
12229W        W43445   4.294   3.617  10.071 -0.0394 -0.1444 -0.0599
12230W        W43446  13.948   7.993   2.602 -0.0443 -0.1586  0.1156
12231W        W43447  24.647   3.572   2.680  0.1383 -0.0312  0.3053
12232W        W43448   6.979   2.013   1.660  0.0380  0.1753  0.0667
12233W        W43449   1.477  18.947   9.107 -0.0332  0.1620 -0.1390
12234W        W43450  22.748   5.864   1.281 -0.2865 -0.1966 -0.0818
12235W        W43451  15.768  22.169   7.614 -0.0118  0.1214 -0.0545
12236W        W43452   3.224   6.495   7.500 -0.0612  0.3323 -0.0581
12237W        W43453  23.543  19.059   6.876 -0.0893  0.2239 -0.0216
12238W        W43454  11.381  27.267   1.948 -0.2137  0.2832  0.0502
12239W        W43455  17.694   3.016  10.386  0.0802  0.2069 -0.1816
12240W        W43456   9.339  22.819   1.919 -0.2045  0.0658  0.0156
12241W        W43457   5.703  13.295   2.511  0.0557 -0.2126  0.2063
12242W        W43458   6.720   3.277   0.913 -0.2450  0.0316 -0.3226
12243W        W43459  22.096  26.930   0.866  0.0458 -0.3161 -0.2072
12244W        W43460  16.173   1.036   9.017 -0.2033 -0.0052  0.1879
12245W        W43461   1.575   0.179  10.429  0.0161  0.2120  0.1078
12246W        W43462   7.654  19.535   0.826 -0.2771 -0.1226 -0.1783
12247W        W43463  11.211  20.645   9.261 -0.1076  0.2999 -0.0845
12248W        W43464   4.033  25.204   0.835  0.1792  0.0753  0.1350
12249W        W43465  13.123   9.973   8.248  0.0221 -0.2419  0.2936
12250W        W43466  14.389   7.354   9.755 -0.2076 -0.1767 -0.0520
12251W        W43467   4.532   5.599   8.675  0.1013 -0.0575 -0.1975
12252W        W43468  25.813   9.838   8.506  0.0070 -0.4889  0.1154
12253W        W43469  14.604  10.409   9.099  0.1967 -0.2125  0.3813
12254W        W43470   8.729  12.814   3.011  0.1469 -0.0969 -0.1103
12255W        W43471  24.125   9.330   0.711  0.2954  0.2136  0.1973
12256W        W43472  22.581  24.050  10.143  0.1295 -0.0556 -0.1693
12257W        W43473  23.638   6.022   8.785  0.5382  0.1115 -0.0169
12258W        W43474  25.905  11.405   9.578  0.1266 -0.1304 -0.2513
12259W        W43475  21.869   8.601   9.596 -0.1486 -0.0233 -0.1514
12260W        W43476  25.989  27.020   1.859  0.1372  0.1374  0.0690
12261W        W43477  13.286   6.498   8.404  0.0456  0.0227 -0.2571
12262W        W43478  19.100  10.894   9.214  0.4013 -0.1853 -0.2941
12263W        W43479   3.304  11.604   8.067 -0.3619  0.0648  0.0934
12264W        W43480  10.613  13.232   2.380 -0.1555 -0.3619 -0.1095
12265W        W43481  21.573  25.390   8.652 -0.0323 -0.0798  0.0538
12266W        W43482  18.858  17.458   2.986  0.2682  0.1916  0.0202
12267W        W43483   4.680   4.011   0.078 -0.0608 -0.2238  0.1399
12268W        W43484  19.887  14.079  10.503  0.0947  0.0323 -0.4658
12269W        W43485  24.712  22.994   0.583 -0.0441  0.2366  0.0637
12270W        W43486  14.072  22.076   2.718 -0.1789  0.1663  0.0819
12271W        W43487   0.671  11.569   0.975 -0.1427 -0.2257  0.1026
12272W        W43488   5.254  19.141   0.464 -0.0332  0.0424 -0.1332
12273W        W43489  27.402  11.741   1.943  0.1510 -0.0523  0.0015
12274W        W43490  22.351   8.718   0.326 -0.1137 -0.0914 -0.1773
12275W        W43491  15.096   0.321   2.748 -0.0251 -0.2422  0.1057
12276W        W43492  12.084   2.448   2.743 -0.0988  0.4725 -0.0753
12277W        W43493  12.245   8.274   8.756  0.1142  0.3035  0.1102
12278W        W43494   9.033  14.477   9.724  0.0261  0.3878 -0.1163
12279W        W43495   3.822  25.237   3.635 -0.0488 -0.2411 -0.1908
12280W        W43496  10.150  13.795   2.326  0.3246  0.1776 -0.2941
12281W        W43497  23.438  27.079   9.934  0.2701  0.0940  0.0941
12282W        W43498  19.712  26.899   8.237  0.0980 -0.0895  0.0996
12283W        W43499   5.111   0.833   8.484 -0.2017  0.0227  0.0036
12284W        W43500   4.330  15.203   1.548  0.0862  0.2057  0.2433
12285W        W43501  18.126   3.403   2.429 -0.1080  0.1897  0.2244
12286W        W43502  12.864  11.870   1.568 -0.2233 -0.1913 -0.3674
12287W        W43503   2.332   0.337   1.125 -0.3100  0.2684 -0.0823
12288W        W43504   2.511  14.751   8.998  0.0705 -0.2062  0.1533
12289W        W43505  18.282   5.970   8.694 -0.0877 -0.2809  0.2274
12290W        W43506   8.346  26.045   9.187 -0.2398  0.1955  0.0215
12291W        W43507  25.367  20.557   8.053  0.2140 -0.2984  0.1974
12292W        W43508   5.369   5.359  10.190 -0.2017  0.1266 -0.4572
12293W        W43509   6.928   0.364   8.958  0.1416 -0.0817  0.1104
12294W        W43510  20.173  22.747   7.603  0.1516 -0.0280  0.3049
12295W        W43511   9.815  21.655   9.092 -0.2541 -0.1202  0.0265
12296W        W43512   7.147  15.788   8.211  0.3401 -0.0633  0.2381
12297W        W43513  20.763  11.396   3.342  0.0008  0.0420  0.1305
12298W        W43514  26.250  18.145   2.143 -0.0480 -0.0193 -0.1280
12299W        W43515   4.930   2.130   0.342  0.2584  0.3379  0.2400
12300W        W43516  10.144   0.231   7.033  0.2464  0.0390 -0.1511
12301W        W43517   1.402  10.117   3.273 -0.0528 -0.0457 -0.0390
12302W        W43518  20.876   1.701   9.793 -0.0907  0.3858 -0.0013
12303W        W43519  14.797   7.708   9.845 -0.1324  0.2864 -0.0131
12304W        W43520   3.949  17.655   1.966 -0.0775 -0.1390 -0.2448
12305W        W43521  18.276  25.787   0.415  0.1154 -0.1373 -0.0303
12306W        W43522   6.641  20.115   9.982 -0.0295  0.3822 -0.1500
12307W        W43523  16.590   7.981   2.429  0.0350 -0.0968  0.3243
12308W        W43524  10.268  16.458   0.749 -0.1784  0.3708  0.1498
12309W        W43525   9.749   1.218  10.342  0.2180  0.1426  0.1612
12310W        W43526  15.633  25.798   3.632  0.2166  0.0857  0.0073
12311W        W43527   0.348  24.780   0.936 -0.2590 -0.0833  0.1663
12312W        W43528   9.846  23.553   9.516  0.1457  0.3101 -0.1949
12313W        W43529   8.942   0.937   8.900 -0.0737 -0.1954 -0.0851
12314W        W43530   3.195  17.990   9.281  0.1343  0.4182  0.1079
12315W        W43531   5.470   1.615   3.105 -0.2362 -0.0485 -0.1102
12316W        W43532  13.507  26.036   1.459  0.0145 -0.2696  0.0755
12317W        W43533   6.767  11.359   1.169  0.0201 -0.2154 -0.0149
12318W        W43534   2.784  20.142   9.534 -0.0251  0.0782 -0.0084
12319W        W43535   6.596  22.008   1.287  0.1689 -0.3342 -0.0772
12320W        W43536  23.642  22.952   2.180  0.0195  0.0531 -0.4891
12321W        W43537   4.298  20.858   8.723 -0.0145 -0.3826  0.1054
12322W        W43538   6.972  21.795   9.327  0.0572  0.0621  0.2202
12323W        W43539  19.313  23.820   3.100  0.1033 -0.3087 -0.0000
12324W        W43540   6.978  19.959   9.644  0.0483 -0.1011  0.1390
12325W        W43541  20.768  22.904   9.872  0.2956  0.0562  0.2423
12326W        W43542  12.329   8.210   9.258  0.1332  0.0049  0.0288
12327W        W43543  15.074   1.813   9.920  0.0766  0.3099 -0.0586
12328W        W43544  12.375   0.468   2.873 -0.1135  0.2514  0.0053
12329W        W43545  16.248  22.328   2.180  0.1067  0.0391 -0.0276
12330W        W43546  16.667  20.081  10.052 -0.1623 -0.5723  0.3318
12331W        W43547   0.702  12.157   0.285 -0.1030 -0.1027  0.1298
12332W        W43548  22.260  17.863   8.368 -0.0969 -0.1766 -0.1082
12333W        W43549  16.561   6.521   0.399  0.0120 -0.3215 -0.2985
12334W        W43550  12.014   6.095   0.114 -0.0670 -0.0563  0.0733
12335W        W43551   5.272  14.517   2.192 -0.2245 -0.0407  0.0180
12336W        W43552  13.072  26.081   1.823 -0.1959  0.0376  0.0054
12337W        W43553   2.124  17.019   9.266 -0.1609 -0.0485  0.0308
12338W        W43554  15.522   3.577   7.698  0.0316  0.0181  0.3314
12339W        W43555   1.505   6.323   1.606  0.2238  0.0528  0.1286
12340W        W43556   2.838  23.325   8.792  0.2700  0.0486 -0.0322
12341W        W43557   9.235  10.530   1.107  0.1914 -0.0910  0.0776
12342W        W43558  23.694  10.073   1.214 -0.2808 -0.0738  0.2205
12343W        W43559   9.859  21.968  10.489  0.2171 -0.0268 -0.3705
12344W        W43560  20.267   1.393   8.475  0.5096 -0.1489 -0.1900
12345W        W43561   5.008  13.171   9.580 -0.0967 -0.1189 -0.2496
12346W        W43562   5.539  12.476   9.101 -0.0356  0.1003  0.1067
12347W        W43563  21.312   4.292   9.004  0.0562  0.2673 -0.0792
12348W        W43564   1.721  12.023   7.367 -0.2962 -0.0429 -0.3069
12349W        W43565  21.416   8.799   7.071  0.2503  0.0358 -0.1593
12350W        W43566  24.723   7.696  10.453 -0.1865  0.5212  0.0815
12351W        W43567  10.461  16.437   8.226  0.0631 -0.1652 -0.0332
12352W        W43568  24.937  27.390   9.494 -0.2859 -0.1458 -0.4848
12353W        W43569  17.464  21.565   1.959 -0.3858 -0.0050  0.1503
12354W        W43570   1.718  11.493   2.799 -0.0728 -0.0999 -0.2444
12355W        W43571  26.955  15.844   2.990 -0.2471 -0.1013  0.0062
12356W        W43572  24.394  22.783   7.477 -0.0357 -0.0952  0.0644
12357W        W43573  20.509   9.890  10.070  0.3995  0.0164  0.0152
12358W        W43574   4.983   1.896   9.848  0.0466 -0.1281  0.0533
12359W        W43575  23.829  27.392   8.348 -0.1161 -0.2505  0.4379
12360W        W43576   9.590  26.547   3.025 -0.1337 -0.0060 -0.1173
12361W        W43577  22.582  18.569   3.117  0.1731  0.2781  0.2090
12362W        W43578  22.812  26.907   0.098  0.0762 -0.2485  0.1947
12363W        W43579  15.848   5.074   0.253 -0.1107 -0.1218 -0.0822
12364W        W43580  23.170   4.597  10.416 -0.1328  0.0762 -0.3925
12365W        W43581   4.702   4.564   8.480  0.3529 -0.4516 -0.2290
12366W        W43582  25.678   7.973   0.070  0.0619  0.1145 -0.0265
12367W        W43583  15.065   7.904   3.078 -0.0788 -0.2000  0.1517
12368W        W43584   9.151  17.470   7.682 -0.0866 -0.0696  0.2180
12369W        W43585   6.507   3.701   0.008 -0.1493  0.0156 -0.1470
12370W        W43586  10.329  19.265  10.176  0.2046  0.0290 -0.1003
12371W        W43587  12.189  25.095   8.533 -0.3702  0.1664 -0.1228
12372W        W43588   3.690   9.863   2.309 -0.1793  0.0395  0.0986
12373W        W43589  23.384  21.991   7.967 -0.2351  0.0990  0.1148
12374W        W43590  16.042   1.441  10.342  0.1406  0.1044 -0.1729
12375W        W43591  15.899   7.210   1.576  0.0980  0.1068 -0.0783
12376W        W43592  10.680  23.501   9.348 -0.2406 -0.0889 -0.0709
12377W        W43593   5.864   7.821   8.145  0.1450  0.3460  0.0055
12378W        W43594   5.045   6.141   1.151  0.1488 -0.0017  0.3142
12379W        W43595  15.024   7.569   2.624 -0.0033 -0.0014  0.0211
12380W        W43596  14.179  22.577   2.459  0.1547  0.3323  0.1928
12381W        W43597   4.390  13.629   2.340 -0.1725  0.0967  0.1486
12382W        W43598  27.567   2.996  10.489  0.0263 -0.1109 -0.1478
12383W        W43599  15.214  12.203   1.356  0.1334 -0.2363 -0.2025
12384W        W43600  17.336   5.412   2.303  0.1581 -0.0990 -0.0835
12385W        W43601   5.041  19.316   2.722  0.0071  0.0047  0.1223
12386W        W43602  10.226  27.147   8.072  0.2715 -0.0793  0.0183
12387W        W43603  22.524   4.807   1.534  0.2133  0.1113 -0.0495
12388W        W43604  10.019   4.540  10.103  0.1997 -0.1673  0.1219
12389W        W43605   4.048  12.516   1.123 -0.2011 -0.2333  0.3609
12390W        W43606  17.333  17.437   3.545 -0.0210 -0.2482  0.0005
12391W        W43607   4.828  18.016   9.683  0.1987  0.2102  0.0465
12392W        W43608  23.197   7.307   2.730  0.0958  0.0023 -0.1026
12393W        W43609  21.344  15.958   6.746  0.0787 -0.2934  0.0002
12394W        W43610   5.037  25.151   3.515 -0.1966 -0.1793  0.0082
12395W        W43611  20.036  13.077   9.923  0.1209 -0.1668  0.0818
12396W        W43612   0.344  24.129   0.633  0.1629  0.1091 -0.3175
12397W        W43613  14.451  12.957   9.806  0.0396  0.0310  0.1663
12398W        W43614   7.482  11.218   9.851 -0.2252  0.3508 -0.0807
12399W        W43615   7.379  10.428   1.661 -0.1805  0.3523  0.0998
12400W        W43616  22.018  24.915   0.715 -0.0204 -0.2182  0.0987
12401W        W43617   3.302   2.888   7.982  0.1889 -0.1494 -0.1385
12402W        W43618   1.322  25.767   8.088 -0.0741 -0.2394 -0.0319
12403W        W43619  21.651  13.663   8.315 -0.0236  0.1979 -0.4281
12404W        W43620  19.154   4.673   2.949  0.1972 -0.1976  0.2872
12405W        W43621   0.656   1.650   2.267  0.2203 -0.0774  0.1066
12406W        W43622  10.912  23.001   0.225  0.2035  0.1677 -0.4532
12407W        W43623   2.804  13.199   3.180 -0.1495  0.0275  0.4197
12408W        W43624  14.548  25.934   8.375  0.2761  0.1018 -0.0408
12409W        W43625   2.474  19.056   0.241  0.4755  0.1345 -0.3776
12410W        W43626   7.391  27.529   2.633 -0.0597 -0.2778  0.0189
12411W        W43627  24.783   4.729   2.938  0.1905  0.1222 -0.6649
12412W        W43628  10.336  16.466   9.227  0.1972  0.3716 -0.1815
12413W        W43629  22.103  22.024   3.380 -0.2878  0.0619  0.0567
12414W        W43630   1.518  20.527   1.461  0.0872  0.0526  0.0550
12415W        W43631  13.463   1.953   1.424  0.1305 -0.3340 -0.0884
12416W        W43632   4.198   5.792   8.368  0.1915  0.0710  0.1166
12417W        W43633  17.817  20.484   2.218 -0.0498  0.1708  0.2172
12418W        W43634  23.441   8.839   8.127 -0.1184  0.2749 -0.0257
12419W        W43635  24.768   3.102  10.186  0.0097 -0.1201  0.3759
12420W        W43636  14.925  11.137   7.998  0.3579 -0.0838  0.1925
12421W        W43637   1.241   8.633   3.490  0.0468 -0.1807  0.3713
12422W        W43638  17.248  10.287   2.369 -0.1192 -0.1394  0.1800
12423W        W43639  22.521  23.483   7.481  0.0064 -0.0878 -0.1785
12424W        W43640  23.755  10.195   1.675  0.1144  0.0545  0.0702
12425W        W43641  16.907   8.824   7.483  0.1671  0.1382 -0.0710
12426W        W43642  25.779   7.495   2.261  0.1660 -0.1509 -0.0572
12427W        W43643  18.277  25.509   1.678  0.0898  0.2372  0.2813
12428W        W43644   6.445  24.013   3.226  0.0527  0.1643  0.2092
12429W        W43645  24.487  21.293   0.857 -0.0818  0.0356  0.0519
12430W        W43646  13.719  13.054   1.783  0.0984  0.0793  0.0657
12431W        W43647  26.151   6.616   0.223  0.1441 -0.1246 -0.1092
12432W        W43648   9.015  12.557   9.798 -0.0983  0.2868 -0.1842
12433W        W43649  14.449   6.697   7.953  0.2080  0.1351 -0.0535
12434W        W43650  24.246  10.693   2.438 -0.0302  0.1480  0.0108
12435W        W43651  24.528  15.275   3.735  0.1843 -0.1792 -0.0915
12436W        W43652  25.599  24.289   1.584  0.0889 -0.1242  0.0269
12437W        W43653  16.186   5.934   1.868 -0.2359  0.2315 -0.2710
12438W        W43654  15.439  24.664   3.581 -0.0148 -0.1768 -0.1397
12439W        W43655  13.690  26.956   3.208 -0.0070  0.2413  0.2875
12440W        W43656   6.027   8.622   0.716  0.0028 -0.2113 -0.0049
12441W        W43657   5.164   0.709   9.745 -0.2471  0.3482 -0.1560
12442W        W43658  11.157   4.395   1.857  0.0543  0.0990 -0.0009
12443W        W43659  14.806  21.992   2.943  0.0978  0.0959  0.4514
12444W        W43660   7.061   8.667   3.145  0.2257 -0.0585  0.1910
12445W        W43661  11.038   6.222   0.603 -0.2074  0.0197 -0.1723
12446W        W43662  20.672  16.688   6.931  0.5554  0.3493  0.0094
12447W        W43663  18.423   5.685   3.013  0.0228  0.2836  0.0037
12448W        W43664  13.259  22.424   1.038 -0.2313  0.1541 -0.3136
12449W        W43665  25.120  25.720   0.012 -0.1260 -0.0130 -0.0107
12450W        W43666  13.843  10.957   8.067  0.2511 -0.1494 -0.2113
12451W        W43667  12.170   1.703   2.279  0.1228  0.1661  0.0134
12452W        W43668  20.082  20.636   2.231 -0.3779  0.0815 -0.1400
12453W        W43669  18.246   9.431   2.253  0.1665  0.1024 -0.3147
12454W        W43670   8.302  23.037  10.103  0.0051 -0.0727  0.0300
12455W        W43671   3.025  25.366   3.879 -0.0667 -0.0291  0.1995
12456W        W43672   4.090  19.819   0.564  0.0969  0.2242  0.0245
12457W        W43673  26.125  10.247   8.638 -0.1300  0.0278  0.1254
12458W        W43674   2.619   4.462   2.492  0.1863  0.1021 -0.0054
12459W        W43675  25.200  26.136   8.314  0.1860  0.2089  0.2461
12460W        W43676  10.195  25.484   8.321 -0.1735 -0.0060  0.1018
12461W        W43677  26.721  17.598   7.550  0.0983  0.1031 -0.5452
12462W        W43678  12.307  15.407   7.994 -0.3853 -0.2506 -0.1948
12463W        W43679   6.191   9.139   2.124 -0.1489  0.0347  0.1483
12464W        W43680   6.086  11.541   1.728 -0.0228  0.2018 -0.0165
12465W        W43681  19.603   3.863   7.988 -0.0745  0.1335 -0.1135
12466W        W43682  13.725  14.001   1.896  0.0367  0.0494 -0.3928
12467W        W43683  18.030   9.331   9.045 -0.1127  0.1619 -0.0625
12468W        W43684   0.259  12.581   2.673 -0.2425 -0.0831  0.1318
12469W        W43685  12.289  20.576   1.615 -0.1491 -0.0242  0.3067
12470W        W43686  21.852   1.100   8.985 -0.1463  0.0231  0.2426
12471W        W43687  18.217   3.894   0.177  0.0055 -0.0588  0.4586
12472W        W43688  18.101  19.813   8.015 -0.1462  0.0327  0.2452
12473W        W43689  21.570  17.110   9.245  0.0346 -0.2603 -0.0337
12474W        W43690  25.545   2.664   1.071  0.0562  0.2913  0.2278
12475W        W43691  25.961  17.592  10.452  0.2940  0.0720 -0.0738
12476W        W43692   0.311  22.745   0.351  0.1077  0.1870  0.0014
12477W        W43693  16.969   5.943   7.617 -0.0267  0.2575  0.0543
12478W        W43694  26.649  20.514   9.856 -0.4231 -0.0866  0.0649
12479W        W43695  16.449   3.071   2.094 -0.2869 -0.0840  0.1696
12480W        W43696   0.004   8.585   0.974  0.1828 -0.0660  0.0506
12481W        W43697  14.397   7.692   7.925  0.4559 -0.0923 -0.1511
12482W        W43698   1.163  16.130   9.120 -0.0717  0.3737 -0.3321
12483W        W43699   4.298  20.243   1.583  0.0353 -0.0843  0.0376
12484W        W43700   5.990   0.631   1.950  0.3228  0.0728  0.0176
12485W        W43701   0.074  27.110  10.444 -0.0623  0.3139 -0.1728
12486W        W43702  19.579  15.312   2.487 -0.0896  0.0658 -0.2388
12487W        W43703   8.022   8.850   1.520 -0.1249 -0.2022 -0.1099
12488W        W43704   9.172  20.178  10.541 -0.4654  0.1716  0.4829
12489W        W43705   1.760  27.582   9.792 -0.0883  0.1817  0.0503
12490W        W43706   2.039  26.201   2.354 -0.0506  0.1751 -0.3065
12491W        W43707   1.172  15.538   9.713  0.3393  0.1277  0.1528
12492W        W43708  15.745  10.562   2.260  0.2854  0.1043 -0.1418
12493W        W43709  15.288  19.268   8.749  0.2191 -0.2749 -0.0679
12494W        W43710  15.617   9.367   8.906  0.2107  0.0684 -0.1207
12495W        W43711  25.383  19.787   2.300 -0.0387  0.1330  0.0670
12496W        W43712  20.560  17.943   7.955 -0.0670  0.2171  0.1497
12497W        W43713  11.968  18.876   2.325 -0.2202 -0.2458  0.1859
12498W        W43714   3.068  21.026   8.364  0.0458  0.2477  0.3896
12499W        W43715  17.609  22.805   1.296 -0.4947  0.1021  0.2466
12500W        W43716   8.143   1.449   8.955  0.2162  0.0315  0.0108
12501W        W43717   9.702  24.448   1.147  0.0392  0.0873  0.0532
12502W        W43718  22.603  20.926   1.117  0.1677 -0.3288 -0.2760
12503W        W43719   0.044  19.280   1.477  0.2435 -0.0516  0.0615
12504W        W43720   3.751  23.423   2.918 -0.1843  0.1613 -0.2825
12505W        W43721   0.511  23.079   7.486 -0.2112  0.2014 -0.0938
12506W        W43722  18.701  17.572   7.701  0.4098  0.1599 -0.0655
12507W        W43723  12.567  25.535   3.879  0.0181  0.0887  0.0532
12508W        W43724  18.139   8.783   0.369  0.0717 -0.0724  0.0666
12509W        W43725  14.768   3.740   8.800  0.1903 -0.1880 -0.0717
12510W        W43726  14.569  19.419  10.523 -0.0085  0.0410  0.1037
12511W        W43727   5.862   1.106   1.600 -0.0378  0.2138 -0.2848
12512W        W43728  22.486  16.225   1.855  0.1472  0.2016 -0.2661
12513W        W43729  16.789   6.557  10.029 -0.0969  0.2828 -0.1115
12514W        W43730   0.428   2.451   0.236  0.2422  0.2168 -0.0270
12515W        W43731   4.111  25.966   2.876  0.0524 -0.2465  0.0235
12516W        W43732  26.116  12.340   2.361  0.2424  0.0322 -0.1296
12517W        W43733  23.678   5.849   9.842 -0.1813  0.1237  0.2021
12518W        W43734  18.779  23.905   1.274 -0.1688  0.1477 -0.3817
12519W        W43735   8.618  27.232   1.259  0.0582 -0.4106 -0.0547
12520W        W43736  22.317  17.494   2.081 -0.0713  0.2531 -0.0595
12521W        W43737  26.258  19.745   7.603  0.0015  0.0516 -0.0290
12522W        W43738   7.372  15.422   1.920 -0.0252 -0.0780  0.1610
12523W        W43739   9.913   8.200   8.076  0.2542 -0.2451 -0.1005
12524W        W43740   3.412   0.802   2.249  0.1286 -0.1011 -0.1068
12525W        W43741   1.707  21.386   1.333  0.0954  0.0194  0.2686
12526W        W43742  16.090  21.847   9.280 -0.0342  0.2240 -0.0001
12527W        W43743  27.356  26.306   1.101  0.2753 -0.0745 -0.1434
12528W        W43744   0.364   9.788   2.067  0.0429  0.3083 -0.3865
12529W        W43745   2.779   3.474  10.244 -0.2888 -0.0094 -0.0589
12530W        W43746  13.464   0.599   1.157 -0.1233  0.0100 -0.0915
12531W        W43747   2.945  21.850   3.324  0.3999  0.2497  0.0324
12532W        W43748   4.652  23.217   9.677 -0.2704  0.0791 -0.1187
12533W        W43749  22.363   0.801   9.063 -0.0930 -0.1302 -0.2499
12534W        W43750  17.344  18.371  10.356  0.1828 -0.1629 -0.2174
12535W        W43751   6.296   3.232   3.450 -0.1751 -0.1256  0.3357
12536W        W43752  22.871  19.550   2.743  0.0855 -0.0051 -0.4350
12537W        W43753  17.402  15.609   0.640  0.1625 -0.0989  0.1917
12538W        W43754  10.153  18.125   2.186 -0.1024 -0.1074 -0.0473
12539W        W43755  20.346  13.262   2.339 -0.4519  0.0220  0.1029
12540W        W43756   7.051   5.084   1.896  0.1207  0.1845 -0.1186
12541W        W43757   6.606  20.983   2.311  0.0228 -0.1301 -0.0978
12542W        W43758  26.002   5.684   8.144  0.3518 -0.0534  0.3848
12543W        W43759  21.342  14.766   7.542 -0.0238 -0.0563  0.2389
12544W        W43760  18.728  21.713   8.664 -0.1744  0.0672 -0.1425
12545W        W43761  12.850   9.795   9.789 -0.3034  0.0772 -0.2343
12546W        W43762  21.544  24.841  10.340 -0.0895  0.0560  0.0147
12547W        W43763  26.013  15.150   8.613  0.0215  0.7733 -0.3326
12548W        W43764  21.526  26.433   2.392 -0.1163 -0.0467  0.3144
12549W        W43765   1.911  22.119   0.802  0.1127  0.1349 -0.1409
12550W        W43766  21.334   5.952   2.825 -0.0548 -0.0151  0.0611
12551W        W43767  17.421  10.288   7.661  0.0571 -0.1316 -0.0452
12552W        W43768  15.357  13.940  10.384 -0.1001 -0.2178  0.0578
12553W        W43769   5.701   6.863   2.278 -0.1977  0.3731  0.1312
12554W        W43770   6.179  10.196  10.543  0.0732  0.1253 -0.1173
12555W        W43771  13.846   6.110   3.118 -0.0704  0.2306  0.0642
12556W        W43772   9.096   1.175   7.978 -0.2476  0.2003 -0.0104
12557W        W43773  26.725  25.661   8.309 -0.1827 -0.2342  0.3324
12558W        W43774  19.894   0.697   7.199  0.3045  0.0863  0.0483
12559W        W43775  19.502  22.937   1.027 -0.0185  0.0392  0.1018
12560W        W43776  16.490   9.554   0.879 -0.1036 -0.0344  0.0774
12561W        W43777  17.346   5.326   3.480  0.0886  0.3018 -0.1855
12562W        W43778  16.385  18.902   3.225 -0.0241 -0.1242 -0.1210
12563W        W43779  13.464  21.464   8.401 -0.0242 -0.1876  0.0142
12564W        W43780  13.636  25.651   1.769 -0.1555  0.0462 -0.1237
12565W        W43781  20.526  24.487  10.262  0.1975  0.2423  0.0181
12566W        W43782  22.920  23.978   8.357  0.1280  0.2213  0.0352
12567W        W43783   2.738  15.296   0.678  0.0817  0.0190  0.1880
12568W        W43784  10.827   3.475   2.127  0.3261  0.1092 -0.0466
12569W        W43785  17.455  19.479   8.264  0.1316  0.1189  0.2560
12570W        W43786  27.440  17.413   9.460 -0.3151 -0.1388 -0.3133
12571W        W43787  22.019   1.877   0.656 -0.0302 -0.0114  0.2556
12572W        W43788   7.193  23.547   9.359 -0.0309 -0.0685 -0.2715
12573W        W43789   8.011   3.076   3.143 -0.0555 -0.2847 -0.0380
12574W        W43790   8.164  23.944   2.757  0.3067  0.0369 -0.0350
12575W        W43791  23.466   6.003   0.263 -0.0982  0.3333  0.0972
12576W        W43792   7.507   1.612   2.583 -0.1078  0.3391 -0.1447
12577W        W43793   5.326  18.019  10.019  0.0124  0.0437  0.4326
12578W        W43794   2.885  18.661   2.660 -0.0402  0.1343 -0.1219
12579W        W43795   2.976   2.629   9.889 -0.2732 -0.0982 -0.1536
12580W        W43796   9.824  16.727   7.620  0.0311  0.0001  0.0380
12581W        W43797  15.374  24.760   9.556  0.2703 -0.0114 -0.1767
12582W        W43798  10.520  11.175   2.513  0.2947 -0.0482 -0.2067
12583W        W43799  17.296  15.517   2.424 -0.3132  0.3397 -0.0771
12584W        W43800   0.201  15.449   3.294 -0.2875  0.0187  0.0280
12585W        W43801   2.909  19.793   8.565  0.1536 -0.2088  0.0727
12586W        W43802  16.363  26.556   0.273 -0.0033 -0.0055 -0.0676
12587W        W43803   2.422   9.569   0.940 -0.0469  0.1627  0.1925
12588W        W43804  17.988  25.227   0.504  0.4166  0.0728 -0.1578
12589W        W43805  12.145   2.115   8.523 -0.2724 -0.1569 -0.4000
12590W        W43806   3.890  24.972  10.312  0.3161  0.1341 -0.0061
12591W        W43807  16.373   2.311   8.841  0.0348 -0.0254 -0.1852
12592W        W43808  23.271  20.668   7.651  0.0718 -0.2978  0.0466
12593W        W43809  12.182  14.911   9.740 -0.1167 -0.2542 -0.2900
12594W        W43810  10.853   1.225   2.686 -0.1579 -0.5199  0.0314
12595W        W43811  24.623  15.189   1.715 -0.1337 -0.0959  0.1444
12596W        W43812  23.747  15.980  10.377  0.0867  0.0290 -0.1114
12597W        W43813  19.467  14.993   8.105  0.0096  0.2125 -0.1405
12598W        W43814   3.397   2.262   8.648  0.1962  0.0381 -0.2177
12599W        W43815  22.377   6.047   0.497 -0.2087  0.3727  0.0607
12600W        W43816  10.727   9.483   9.424  0.0509 -0.3510  0.1593
12601W        W43817   2.286  12.043   9.593  0.1581  0.0090  0.0219
12602W        W43818   3.370   8.915   1.920 -0.0584  0.1891 -0.1857
12603W        W43819  13.101   1.238   1.900  0.1194 -0.0480 -0.1255
12604W        W43820  12.071  16.091  10.302 -0.0211 -0.2593 -0.0357
12605W        W43821  20.523   7.089   0.053  0.0830  0.3330  0.1844
12606W        W43822   0.614   1.172   2.379 -0.1053 -0.2935  0.2749
12607W        W43823  17.701  14.016   3.040  0.0634  0.0381 -0.1234
12608W        W43824  12.505   3.090   8.820  0.1167 -0.0514 -0.2097
12609W        W43825  26.112   2.901   9.979  0.1564 -0.2774 -0.1773
12610W        W43826   1.116  11.689   1.758  0.0989  0.0511 -0.3254
12611W        W43827   8.313  12.879  10.438  0.2249 -0.1605 -0.0794
12612W        W43828   5.540   3.864  10.111 -0.2021 -0.2045 -0.1339
12613W        W43829  18.759  11.028   2.247  0.0421  0.2038 -0.2686
12614W        W43830   0.777  24.618   2.483 -0.1311  0.0202  0.4016
12615W        W43831   0.237   0.954   0.204 -0.1817 -0.0126 -0.0318
12616W        W43832  11.379  21.783   7.850 -0.1871  0.1925 -0.2143
12617W        W43833   8.393  23.074   3.081  0.3028 -0.4004  0.1341
12618W        W43834  18.672   4.946   8.674  0.1408 -0.1254  0.0729
12619W        W43835  27.390   5.330   0.490 -0.0340  0.3011  0.1787
12620W        W43836   6.791   5.505   2.233 -0.1020 -0.3337 -0.1456
12621W        W43837  26.983  13.635   2.221  0.2447 -0.0738 -0.2603
12622W        W43838  23.339  25.211   9.749 -0.1162  0.1323 -0.0791
12623W        W43839  25.148   4.407   3.099  0.3587  0.0368  0.0468
12624W        W43840   0.168  10.708   1.201  0.0493  0.0711 -0.1060
12625W        W43841   8.581   7.481   8.424  0.0599  0.2221 -0.2755
12626W        W43842  16.582  11.260   9.690 -0.0065  0.1348 -0.2565
12627W        W43843  27.302  18.394   8.323  0.0370 -0.1733 -0.0972
12628W        W43844  15.840  27.263   1.928 -0.1701 -0.1684 -0.2443
12629W        W43845  19.944   2.364   1.321  0.1050  0.1984 -0.1226
12630W        W43846  15.717  20.827   2.592 -0.0708  0.1465  0.0710
12631W        W43847  19.023  12.927  10.428  0.0839  0.0753 -0.2120
12632W        W43848  10.544   1.101   3.655 -0.0544  0.1684  0.2269
12633W        W43849   4.447  20.455   8.382  0.3049  0.4287 -0.0844
12634W        W43850  24.665  10.159   2.198 -0.0469  0.0757 -0.2313
12635W        W43851  20.233  19.588   2.531  0.1849 -0.1906 -0.3019
12636W        W43852  26.374  26.475   1.110 -0.1614  0.0956  0.1491
12637W        W43853  21.557  11.919   0.768 -0.0308 -0.0965 -0.1166
12638W        W43854   8.531   4.037   3.395 -0.2303  0.1838  0.2346
12639W        W43855  24.804  11.139   3.711 -0.1166 -0.4212 -0.2761
12640W        W43856  14.028   9.571   8.401  0.2548 -0.0201  0.0550
12641W        W43857   2.864  22.276   1.472  0.1414 -0.0267  0.3400
12642W        W43858   7.434   5.682   1.353  0.0739 -0.1352 -0.0009
12643W        W43859  20.604  14.981   7.365  0.2095 -0.0096  0.0417
12644W        W43860  17.209  14.131   8.292 -0.2454 -0.0139 -0.2732
12645W        W43861  16.433  19.731   3.524 -0.1446  0.2056  0.1809
12646W        W43862   6.551  20.842   9.234 -0.0070 -0.3168 -0.0565
12647W        W43863  24.297  15.077   0.768 -0.0291  0.0388  0.1124
12648W        W43864   8.416   3.147   3.745 -0.2564 -0.0563 -0.2347
12649W        W43865  11.738  25.458   8.853  0.0219 -0.0711  0.0227
12650W        W43866  13.548   3.425   3.189  0.2196  0.0353 -0.1941
12651W        W43867   2.327  25.923   8.429 -0.1891 -0.1140  0.0921
12652W        W43868  19.132  25.628   2.011  0.3311 -0.2763  0.2748
12653W        W43869  25.424   9.701   3.317  0.3892  0.0407  0.0863
12654W        W43870  14.458   7.131   2.028  0.1815 -0.1808 -0.2330
12655W        W43871  23.922  23.339   2.586  0.2621  0.1313  0.4552
12656W        W43872  24.723  23.680   1.976 -0.1205  0.1414  0.2143
12657W        W43873   0.820   9.095   8.693  0.1149  0.0467 -0.2370
12658W        W43874  13.067  18.044   8.261 -0.3226  0.1760  0.1349
12659W        W43875   2.668  15.989   9.982 -0.1072 -0.2756 -0.0040
12660W        W43876   7.563  19.862   8.853  0.0022  0.4863  0.0630
12661W        W43877   8.472  12.587   7.601  0.0451 -0.0230 -0.0841
12662W        W43878   8.493  10.074   8.094 -0.1422  0.2091  0.0440
12663W        W43879   0.637   4.322   9.477  0.2940 -0.0267  0.1912
12664W        W43880  27.051  16.590   2.477  0.1006  0.2363  0.2795
12665W        W43881   2.010  12.543   0.476  0.1610  0.1041  0.1629
12666W        W43882   3.610  11.920  10.270 -0.3304  0.1102 -0.0176
12667W        W43883   6.177  27.518  10.225  0.0437  0.1199  0.0272
12668W        W43884  14.990  11.674  10.291 -0.0503 -0.1437  0.1239
12669W        W43885  25.794  10.586   2.072  0.2001  0.1813  0.2897
12670W        W43886   7.693  21.320   1.798 -0.1309  0.2521  0.1155
12671W        W43887  26.236   6.420  10.040 -0.1087 -0.1835  0.1200
12672W        W43888  15.936   4.325   3.032  0.1407 -0.0852 -0.3814
12673W        W43889  14.098  19.907   2.855 -0.0180 -0.0446  0.0732
12674W        W43890   5.675   0.640   9.053  0.2205 -0.1361 -0.1051
12675W        W43891   6.366  21.236   2.617  0.2811  0.2024 -0.0663
12676W        W43892  12.153  17.666   1.115 -0.1600  0.4713  0.0480
12677W        W43893   6.270  10.009   9.629  0.1365 -0.0001  0.2598
12678W        W43894   7.423   9.679   8.398  0.2010  0.1870  0.0924
12679W        W43895   8.827   7.759   9.371  0.3944 -0.2699  0.1779
12680W        W43896  26.498   3.212   1.542  0.3206 -0.1348  0.0781
12681W        W43897  27.008  24.187   0.663 -0.1949  0.2251  0.0338
12682W        W43898  24.684  21.194   1.367 -0.0737 -0.3407 -0.3226
12683W        W43899  13.101   0.046   0.646  0.1862 -0.4005 -0.1393
12684W        W43900  15.878   9.946   2.821  0.2416 -0.1148 -0.1661
12685W        W43901   5.778  17.820   9.719  0.2253 -0.2829  0.3605
12686W        W43902   0.557  26.694   7.555  0.1542 -0.0760 -0.2024
12687W        W43903  26.838  26.711   9.801  0.3737 -0.0662 -0.0422
12688W        W43904  24.929  18.722   1.591 -0.3718  0.1035 -0.1150
12689W        W43905   7.469  16.282   1.731  0.1615 -0.0175 -0.0227
12690W        W43906  13.635  26.544   2.328  0.0136  0.0807 -0.0260
12691W        W43907   5.694   8.344   8.559 -0.1528  0.0322 -0.0036
12692W        W43908  14.972  27.258  10.350  0.0430  0.0567 -0.2601
12693W        W43909  27.239  26.734   8.604 -0.0319  0.2000  0.2836
12694W        W43910  12.156  26.227   8.471  0.3827 -0.1195 -0.2062
12695W        W43911  10.646  22.224   1.653  0.1245  0.0560  0.1596
12696W        W43912  26.972   3.459   7.642  0.0648  0.0541 -0.0413
12697W        W43913  10.001   4.257   2.643  0.2379  0.1366  0.0505
12698W        W43914  13.543   0.935   0.071  0.1984 -0.0353 -0.1029
12699W        W43915  21.869   6.411   8.178 -0.0531 -0.0258 -0.4026
12700W        W43916  27.449  13.297   2.894  0.1789 -0.1421 -0.1754
12701W        W43917  23.683   6.945   8.722  0.1615 -0.2972 -0.0214
12702W        W43918  16.643  18.747   0.694  0.0565  0.1429  0.0845
12703W        W43919   5.406   5.102   2.386  0.0750 -0.3802  0.0784
12704W        W43920   9.025  14.587   0.778  0.0114 -0.3630  0.2981
12705W        W43921  20.333   2.232   3.056  0.0313 -0.1181 -0.0997
12706W        W43922  23.187  20.065   2.040  0.2260 -0.0692 -0.2460
12707W        W43923   2.451  22.295   0.785 -0.1288 -0.1482 -0.1489
12708W        W43924  13.832  16.178   8.977 -0.1581  0.3112 -0.1317
12709W        W43925  25.036  15.763   1.163  0.2529 -0.0596 -0.2459
12710W        W43926   2.619   4.858   1.315 -0.0001 -0.0447 -0.2181
12711W        W43927   9.240   0.113  10.109 -0.0592  0.2222  0.3037
12712W        W43928  18.630   5.949   9.080  0.0471 -0.1953  0.3074
12713W        W43929  23.540  12.072   8.465 -0.1172 -0.0245 -0.1459
12714W        W43930  24.100   7.926   0.786 -0.1722  0.0948 -0.0672
12715W        W43931  14.478  16.160   7.902 -0.0442  0.0297  0.0556
12716W        W43932  10.309  10.719   8.227  0.1678 -0.1226  0.1276
12717W        W43933   2.701  16.325   1.181  0.1909 -0.2563 -0.1800
12718W        W43934   6.585  20.107   1.934  0.0106  0.0313 -0.0206
12719W        W43935   5.811  23.068   2.628 -0.1134 -0.3915  0.1729
12720W        W43936   9.560   8.094   1.615  0.1170  0.0334 -0.1086
12721W        W43937  18.383  18.651   9.827  0.2166 -0.3207 -0.3488
12722W        W43938  18.120  26.592   2.492  0.1463  0.3342 -0.0678
12723W        W43939  13.690   5.541  10.207  0.0214 -0.1949  0.2044
12724W        W43940   5.794  19.856   1.641  0.1661 -0.2352 -0.0184
12725W        W43941   2.499  10.930   0.612  0.0285 -0.4190  0.3606
12726W        W43942  20.305  19.760   0.376 -0.1262 -0.0346 -0.0176
12727W        W43943  17.600   2.914   0.339  0.0561 -0.0049 -0.2261
12728W        W43944  10.366  14.094  10.300 -0.0318 -0.1264  0.1209
12729W        W43945  16.691   1.874   1.758  0.1902 -0.1790  0.0258
12730W        W43946  11.164  23.029   1.727  0.0009 -0.0173  0.2908
12731W        W43947  12.447  21.074   8.427 -0.1248 -0.0661  0.0922
12732W        W43948  10.463   7.105   7.979  0.0453 -0.1572  0.0781
12733W        W43949  14.357  24.697   9.614  0.3966  0.1563  0.1552
12734W        W43950  12.592   3.765   1.731  0.2013  0.0830  0.1680
12735W        W43951  15.468   9.753   9.188  0.0254  0.0831 -0.1454
12736W        W43952   6.011  22.572   2.850  0.1446  0.2671  0.1914
12737W        W43953  20.555  12.529   8.731  0.1799 -0.2567 -0.3473
12738W        W43954   4.506  26.909   8.621  0.1320 -0.1769  0.0177
12739W        W43955  24.171  19.882   1.754  0.1116 -0.1994  0.2292
12740W        W43956  25.789   5.769   9.452  0.0263  0.1085  0.0471
12741W        W43957  23.834   2.704   0.013 -0.1704  0.1988  0.1918
12742W        W43958  14.194  11.773   0.931 -0.2038  0.1012  0.0489
12743W        W43959  17.301   3.590  10.315 -0.0352  0.2065 -0.2151
12744W        W43960   5.143   9.626   8.177  0.2788  0.0758 -0.1559
12745W        W43961  11.922   7.891   9.978 -0.0417 -0.0413 -0.0164
12746W        W43962  19.062   4.092  10.480  0.0043 -0.2071  0.1740
12747W        W43963  20.644   7.469   8.640  0.0350  0.3624 -0.0882
12748W        W43964  23.208  11.953  10.505 -0.1236 -0.0356 -0.2823
12749W        W43965  26.983   6.589   3.118  0.0388  0.0041 -0.0272
12750W        W43966  18.097   7.812   7.927 -0.0571 -0.2071 -0.0713
12751W        W43967  23.083  14.757   1.909  0.2345 -0.2341 -0.0229
12752W        W43968  13.596  23.138   1.457 -0.0190 -0.1278 -0.0856
12753W        W43969  24.408  26.213   7.860 -0.0124 -0.2056 -0.3271
12754W        W43970  14.032   5.959   3.682  0.1278  0.0172 -0.4160
12755W        W43971   3.688   5.756   3.811  0.1815 -0.1858  0.2376
12756W        W43972  12.944  23.240   0.809  0.0231  0.1698 -0.0448
12757W        W43973   7.289  11.325   1.134 -0.0466  0.2812  0.1849
12758W        W43974   8.975  22.819   1.362 -0.1479  0.0482 -0.0802
12759W        W43975   5.947  15.013   8.214  0.3200 -0.0839 -0.0196
12760W        W43976  20.063  24.449   2.735  0.3186  0.3158  0.0847
12761W        W43977  25.886  10.296   0.952 -0.1114 -0.2093 -0.0405
12762W        W43978   9.467   9.851   1.855 -0.2799 -0.0078 -0.5896
12763W        W43979  27.528  21.217   1.829  0.1632 -0.3131 -0.0014
12764W        W43980  23.167  26.550   9.753 -0.1529 -0.2593  0.0205
12765W        W43981  26.315  16.429   2.884  0.0374 -0.1972 -0.2981
12766W        W43982  25.350  16.661   9.664  0.1671  0.0111 -0.0844
12767W        W43983  23.123  18.412   0.379 -0.2187  0.2205 -0.0943
12768W        W43984  20.506  16.301  10.506 -0.0241 -0.0719  0.1833
12769W        W43985  19.176   2.315   0.330  0.2609 -0.3006 -0.0893
12770W        W43986  19.100  13.073   9.941  0.1165 -0.2280  0.3620
12771W        W43987  14.594  15.645   0.434  0.2820 -0.2338  0.0784
12772W        W43988  21.295   3.331   9.415  0.3446 -0.0099  0.0315
12773W        W43989   5.867   2.669   1.186  0.4220  0.1952 -0.0128
12774W        W43990   3.542  26.582   3.915  0.3318 -0.0744 -0.0450
12775W        W43991  25.293   0.214   7.506 -0.1862 -0.0470 -0.2894
12776W        W43992   8.013  15.120  10.077  0.0004  0.0944  0.2192
12777W        W43993   0.149  18.924   3.610 -0.1332 -0.1155 -0.1633
12778W        W43994  11.681  18.158   0.035  0.0543 -0.2264  0.1952
12779W        W43995   9.689   5.333   1.819  0.2965  0.1873 -0.2077
12780W        W43996   3.478   8.747   8.951  0.2577 -0.1948 -0.1122
12781W        W43997  23.967  13.184   9.198 -0.2999  0.0252 -0.0043
12782W        W43998  22.501  26.106   9.630 -0.0634  0.1445 -0.0850
12783W        W43999  17.521  16.840   2.911  0.0023  0.0458 -0.0960
12784W        W44000  13.072  10.118   9.063 -0.1455 -0.2034  0.0732
12785W        W44001  10.299  17.207   1.376 -0.0934 -0.0536 -0.0559
12786W        W44002   5.151  20.990   2.737  0.0785  0.3707  0.0796
12787W        W44003  21.934  13.229   2.019 -0.0230 -0.1150  0.2104
12788W        W44004   9.868   1.796   0.987 -0.2949  0.0325  0.3450
12789W        W44005  26.560   2.740   1.900  0.0051  0.2299 -0.0207
12790W        W44006   8.305  14.537   0.242  0.2688 -0.1060  0.0260
12791W        W44007  10.016  24.306   2.025  0.1729  0.1817  0.0852
12792W        W44008   5.364   4.010   3.095  0.0376  0.1178  0.0261
12793W        W44009  15.728   1.136   3.025  0.0383  0.2248 -0.0465
12794W        W44010  26.109  22.078   9.417 -0.0233  0.2284 -0.1716
12795W        W44011  20.329   1.103   7.842  0.1830 -0.0582 -0.0106
12796W        W44012  27.470  25.229   1.775 -0.0415 -0.0427 -0.2013
12797W        W44013  18.214  21.382   2.273  0.3394 -0.0110  0.0380
12798W        W44014  11.697   4.715   9.478 -0.0701  0.2897  0.2732
12799W        W44015  10.018  15.496   3.328  0.3906  0.0027  0.0514
12800W        W44016  11.801  17.770   7.560 -0.2068  0.3783 -0.3354
12801W        W44017   2.883   8.259   9.593 -0.0679  0.0295  0.0485
12802W        W44018   5.066  26.634   7.677  0.1725  0.1804  0.0395
12803W        W44019  24.144  17.215   8.282  0.0437  0.1971 -0.1763
12804W        W44020  10.892  16.366   3.604  0.1181 -0.0707  0.1366
12805W        W44021   9.265  11.704   9.579  0.0249  0.0328  0.1975
12806W        W44022  25.178   3.528   2.646  0.1036  0.1236  0.1796
12807W        W44023   9.555  19.021   9.187 -0.2292  0.0305 -0.0868
12808W        W44024  24.045  18.522   0.512  0.2026 -0.2141  0.1957
12809W        W44025   7.634  11.881   0.817 -0.2075  0.1459 -0.1164
12810W        W44026   6.284   5.430   9.255  0.2947  0.3352  0.1948
12811W        W44027   7.449  23.346  10.021 -0.0767 -0.0997 -0.2714
12812W        W44028  15.177   3.579   9.064 -0.0922 -0.3610  0.2576
12813W        W44029  22.944  10.538   2.696  0.0775 -0.2634 -0.1012
12814W        W44030   8.420  19.315   2.668 -0.4731 -0.0489 -0.0562
12815W        W44031  22.499  10.271   8.429  0.1475  0.0643  0.0385
12816W        W44032   8.720  21.781   2.548 -0.0538 -0.3559 -0.0264
12817W        W44033   6.209   0.108   8.441 -0.0119 -0.0013 -0.2041
12818W        W44034  18.892  13.937   0.967 -0.0152  0.0202 -0.3351
12819W        W44035  11.089   0.111   1.895  0.0365  0.0602  0.1855
12820W        W44036   8.512  14.518   1.648  0.0140  0.1583  0.0058
12821W        W44037   5.697  16.002   9.807  0.0696  0.1674  0.1336
12822W        W44038  12.862  11.622   7.786  0.0752  0.0935  0.1937
12823W        W44039  10.940  14.960   8.468 -0.0267 -0.0534  0.0764
12824W        W44040  26.559  12.215   9.111  0.3629  0.0283  0.0255
12825W        W44041   6.555   3.118   2.488  0.1906  0.0768 -0.1555
12826W        W44042  27.402  20.793   0.821 -0.2134 -0.1698 -0.0620
12827W        W44043  10.129   5.205   7.686  0.1290  0.2002  0.0669
12828W        W44044  10.731  18.212  10.195  0.0376 -0.3272  0.1406
12829W        W44045   4.570  22.648   8.514  0.0400 -0.0237 -0.1746
12830W        W44046   2.776   5.110   9.425  0.0956 -0.0648 -0.0117
12831W        W44047  16.674  12.527   1.882  0.1565  0.0434  0.0281
12832W        W44048  18.880   5.994   9.570 -0.1209 -0.0880  0.2282
12833W        W44049   0.601  10.596   8.643 -0.0338  0.0036  0.3440
12834W        W44050  22.632  25.769   0.414  0.1684  0.1768  0.5440
12835W        W44051   9.285   7.156   1.154 -0.0209 -0.0537  0.2690
12836W        W44052  20.272  14.138   2.182  0.3113  0.2408 -0.3389
12837W        W44053  26.813  23.870   8.409  0.1428  0.0607 -0.2684
12838W        W44054  17.991   1.154   3.930 -0.0559  0.1773 -0.1846
12839W        W44055  10.597  24.588   2.709  0.2851  0.2913  0.4790
12840W        W44056  23.195  10.931   8.071  0.0117 -0.0382  0.2309
12841W        W44057   6.317  24.465  10.004  0.6172  0.0575 -0.3846
12842W        W44058  25.088  16.889   0.609  0.0491 -0.0371 -0.0631
12843W        W44059   9.321  24.800   9.352  0.0391 -0.4322 -0.0514
12844W        W44060   3.200  15.966   0.366 -0.1432 -0.0484 -0.0970
12845W        W44061  15.050  11.440   9.827 -0.1001 -0.0519  0.3569
12846W        W44062  24.353  11.406   2.531 -0.0129  0.0288  0.3714
12847W        W44063  25.431  12.998  10.536 -0.3109  0.0298 -0.1458
12848W        W44064  27.131  12.220   3.255  0.0943  0.1402 -0.4289
12849W        W44065  10.277   0.220   8.524  0.0250 -0.0033  0.1696
12850W        W44066  11.853  13.485   1.105  0.0481 -0.3484 -0.4141
12851W        W44067  11.547  19.068   0.193  0.0835 -0.0189 -0.1063
12852W        W44068  14.852   8.601   1.705 -0.2303 -0.1508  0.0482
12853W        W44069   5.446  11.906   9.560  0.2882 -0.2103  0.0333
12854W        W44070  21.863   9.868   2.162  0.0226  0.1728 -0.0118
12855W        W44071   0.591   5.113   3.793  0.2202 -0.2238  0.0513
12856W        W44072  23.206   2.151   1.449 -0.1813  0.0308 -0.2779
12857W        W44073  16.452   2.901   0.986 -0.1784 -0.0531  0.1729
12858W        W44074  24.516  23.736   8.874  0.1685  0.0981 -0.1886
12859W        W44075  27.370  24.408   9.279  0.3750  0.1783  0.2725
12860W        W44076  11.404   4.261   9.303 -0.2608 -0.2326  0.2638
12861W        W44077   0.312   0.845   1.544 -0.0508 -0.2403 -0.0407
12862W        W44078  25.126  22.980   0.347  0.0328  0.0380 -0.2338
12863W        W44079  26.198   2.672  10.428  0.2333 -0.0074  0.0485
12864W        W44080  12.247  19.147   8.956  0.1667 -0.0089  0.0654
12865W        W44081   5.535  27.267   8.650  0.0342  0.0329  0.1758
12866W        W44082   4.857   3.073   2.837 -0.0293 -0.0244 -0.2632
12867W        W44083  24.056  19.398   2.384  0.2151  0.0246  0.1038
12868W        W44084  22.744  22.549   2.996  0.4938  0.1935  0.2557
12869W        W44085   6.273  14.996   2.034 -0.0478  0.0496  0.1283
12870W        W44086   6.221  17.710   8.784  0.2277  0.0172  0.3199
12871W        W44087  20.461   4.853   2.666 -0.2065  0.2637  0.2822
12872W        W44088  12.146  25.102   7.628  0.0386  0.1332  0.1918
12873W        W44089  26.944  24.147   9.212  0.2266  0.1663  0.2553
12874W        W44090   1.286  14.051   2.292  0.2498 -0.1549  0.1710
12875W        W44091  19.284   9.895   0.804  0.2021 -0.1610  0.0934
12876W        W44092  23.316  11.448   3.420  0.1750  0.0431 -0.3341
12877W        W44093   7.435  23.645   2.280 -0.3685  0.0481 -0.1868
12878W        W44094  14.868  11.687   8.616 -0.3100 -0.1174 -0.0168
12879W        W44095   2.303   1.184   8.295  0.0522  0.1476 -0.1798
12880W        W44096   9.906  12.149   3.463  0.5120  0.3460  0.2270
12881W        W44097  16.267  13.721   2.226  0.1622 -0.0181 -0.1284
12882W        W44098   7.982   6.371   0.018  0.0387 -0.3442 -0.0457
12883W        W44099   7.430  24.007   2.658  0.2086 -0.3640 -0.0468
12884W        W44100  20.326  24.010   1.951 -0.1959 -0.1049  0.0563
12885W        W44101   3.708   8.356   2.172  0.0477  0.1338  0.2134
12886W        W44102  25.838   5.295  10.451  0.1194 -0.0015 -0.1220
12887W        W44103  11.640  21.572   2.749  0.1171 -0.2889 -0.0710
12888W        W44104   6.009   6.757   1.852  0.1295  0.0330 -0.1612
12889W        W44105  23.867   0.554   0.844 -0.0635  0.1983  0.1355
12890W        W44106   9.238  16.182   3.434 -0.0101 -0.1013 -0.0178
12891W        W44107   3.538  19.231  10.275 -0.0540 -0.1586  0.1725
12892W        W44108  11.700  12.007   9.219 -0.1384  0.1474 -0.0417
12893W        W44109  16.402  22.835   1.292 -0.1083  0.2374 -0.0811
12894W        W44110  11.309  11.368   7.813  0.1109 -0.2081 -0.1009
12895W        W44111   4.026  18.148  10.504  0.1789  0.1335 -0.3235
12896W        W44112  24.681  19.304   8.238  0.1138 -0.2641  0.0604
12897W        W44113  24.046   3.301   1.736  0.1230 -0.0093 -0.1992
12898W        W44114  15.484  12.168   1.775  0.0225  0.2025  0.1792
12899W        W44115   5.529   3.667   2.695  0.1261 -0.0229  0.0612
12900W        W44116  25.749  21.447   7.253 -0.0094  0.0385  0.0469
12901W        W44117  26.874  21.240   8.652 -0.1659 -0.1301  0.1689
12902W        W44118  22.227   4.356   8.471 -0.2928 -0.1088  0.0819
12903W        W44119  24.811  20.217   2.916 -0.1110 -0.0598 -0.3216
12904W        W44120  14.208   4.663   1.211 -0.3627  0.0014 -0.1168
12905W        W44121   0.773  21.702   0.201 -0.1962 -0.0809 -0.0997
12906W        W44122  21.086  17.509   1.283  0.1440 -0.2301  0.1987
12907W        W44123   1.418  14.699   2.544  0.3746 -0.0548 -0.0528
12908W        W44124   6.833  20.750  10.256 -0.0129  0.0949 -0.0299
12909W        W44125  12.877   4.022   1.366 -0.1102  0.2798 -0.1582
12910W        W44126   6.269  20.014   3.128 -0.0492 -0.0611  0.0400
12911W        W44127  16.230  21.483   2.672  0.3365  0.2100 -0.0769
12912W        W44128   9.371  13.825  10.363  0.1086  0.0915 -0.2238
12913W        W44129  25.326   8.054   1.534 -0.3022  0.0845 -0.1296
12914W        W44130  14.811  20.050   9.149 -0.3085  0.3094 -0.1132
12915W        W44131  23.628   0.546   2.156  0.1159 -0.1550 -0.0145
12916W        W44132  18.626   4.075   1.158 -0.2426  0.1687 -0.0619
12917W        W44133  26.306   2.892   2.322  0.1193  0.0659  0.0879
12918W        W44134   4.962  18.711   7.699  0.0701  0.1703 -0.1625
12919W        W44135   7.366  17.619   0.459 -0.0636 -0.2688  0.1631
12920W        W44136  24.470   6.354   8.993 -0.0143  0.0763  0.0334
12921W        W44137  25.417  23.058   1.287  0.2032  0.0861  0.1849
12922W        W44138  24.519   7.274   2.457  0.2193  0.0033  0.1962
12923W        W44139   8.559   1.147   1.123 -0.1461 -0.0103 -0.0658
12924W        W44140  21.002  18.446   2.840  0.1378  0.0091 -0.0062
12925W        W44141   9.625   1.644   7.538  0.1515 -0.0711 -0.0367
12926W        W44142  13.252   6.372  10.510 -0.0444  0.2438  0.2087
12927W        W44143  21.626  19.487   7.959  0.2265 -0.0205  0.1482
12928W        W44144   9.645  24.931   8.094  0.1164 -0.2624 -0.1901
12929W        W44145  14.657  25.232   0.912  0.0990  0.0241 -0.3023
12930W        W44146   4.455  18.391  10.387 -0.1111  0.5128 -0.0475
12931W        W44147   3.464  15.600  10.535  0.0343 -0.5127 -0.0193
12932W        W44148   5.064  25.042  10.299  0.3020 -0.0818 -0.2877
12933W        W44149  16.823   2.831   1.857  0.1283 -0.0002 -0.1203
12934W        W44150   2.276  14.059   3.548  0.0999 -0.2649  0.0345
12935W        W44151  12.099   7.159   2.682  0.0056 -0.2505 -0.2114
12936W        W44152  20.005   4.546   9.042 -0.2548 -0.2800 -0.0180
12937W        W44153  23.650   2.088   2.739  0.0389 -0.0147 -0.0270
12938W        W44154  25.393   1.463   9.867 -0.3124  0.0973  0.0915
12939W        W44155   6.695   6.664   1.115  0.0746 -0.2007  0.0922
12940W        W44156  25.897  22.265   1.761 -0.0263  0.1271 -0.1022
12941W        W44157  11.630  27.301   8.821  0.0530  0.0013 -0.0323
12942W        W44158   3.976  11.733   8.884 -0.0624  0.3356  0.1145
12943W        W44159  22.581  17.157   9.154 -0.1975 -0.1875 -0.1416
12944W        W44160   0.853   8.735   0.186 -0.0964 -0.0031  0.0093
12945W        W44161   4.065   3.900   7.871  0.1043 -0.0673 -0.1184
12946W        W44162   0.703   9.497   8.004  0.3264 -0.3076  0.0358
12947W        W44163   7.471   4.864  10.425 -0.2117 -0.1636 -0.0055
12948W        W44164   1.753  11.863  10.531 -0.1370 -0.2983  0.3843
12949W        W44165   6.034  27.407   8.769  0.0262 -0.3290 -0.3312
12950W        W44166   3.459   0.221   2.884 -0.3877  0.0894 -0.0889
12951W        W44167   1.846  14.745   0.595 -0.0043 -0.2671 -0.0543
12952W        W44168  23.410  20.926   1.021  0.0707  0.0424 -0.4037
12953W        W44169  15.316  15.383  10.443  0.2210 -0.1812 -0.3115
12954W        W44170   3.258   6.693   0.524 -0.2400 -0.0570  0.1092
12955W        W44171  27.505  23.495   9.861 -0.1849 -0.2441 -0.0065
12956W        W44172   5.507  27.008   9.946 -0.1337  0.3146 -0.1665
12957W        W44173   1.378  24.304   0.781 -0.3431  0.3182 -0.1211
12958W        W44174  10.304  13.311   9.222  0.2738  0.1025  0.0623
12959W        W44175  23.256  18.597   8.106  0.0193  0.3745  0.3563
12960W        W44176  16.319  18.171  10.201  0.1937  0.0017 -0.0971
12961W        W44177  15.081  14.568   0.288  0.2345 -0.1939 -0.2138
12962W        W44178   1.897   6.682   0.422  0.0277  0.0157  0.0043
12963W        W44179  14.821   5.700   9.336  0.0738 -0.0192 -0.0593
12964W        W44180   0.618  13.462   9.722  0.0978  0.0564 -0.0857
12965W        W44181  18.408   8.481   0.745 -0.1089  0.0670 -0.0159
12966W        W44182   7.031   2.697   9.198  0.2471 -0.0141  0.1561
12967W        W44183  19.658   9.349  10.376 -0.0323  0.0217 -0.0167
12968W        W44184  15.674  21.218   1.648  0.0293 -0.1985  0.5696
12969W        W44185  10.800   7.995   9.877 -0.0178  0.0507 -0.0857
12970W        W44186  22.215   4.955   8.829 -0.1323 -0.1696 -0.0434
12971W        W44187  22.357  12.466   8.050  0.2294 -0.2093  0.1292
12972W        W44188  22.167   0.088   3.831 -0.1301  0.4147 -0.4515
12973W        W44189  25.937  22.648   9.734 -0.1040  0.0140 -0.3015
12974W        W44190  10.792  25.597   9.331  0.0005 -0.0730  0.1844
12975W        W44191   4.693   0.309   3.548 -0.2265 -0.2677  0.0050
12976W        W44192  16.904  24.769   0.281  0.1848  0.0543  0.1071
12977W        W44193   1.970  20.653  10.522 -0.1386  0.2612  0.1224
12978W        W44194  24.955  14.726   0.373 -0.0739 -0.0423  0.3961
12979W        W44195  21.503  18.918  10.321  0.0749 -0.0575 -0.3360
12980W        W44196  21.387  14.610   8.896  0.1523  0.2908 -0.2166
12981W        W44197   7.227  13.798   2.068 -0.2479 -0.3510 -0.1275
12982W        W44198   2.204   6.152   8.291  0.1437  0.1842 -0.2483
12983W        W44199  15.267  16.696   1.712 -0.1454 -0.2662  0.2364
12984W        W44200  19.265  14.340   7.478  0.2940 -0.0478  0.3777
12985W        W44201   7.603  17.907   7.670  0.0895 -0.3001 -0.0703
12986W        W44202  24.991   4.139   1.098 -0.1463  0.1356 -0.0878
12987W        W44203  11.194  12.053   8.856 -0.2430 -0.0899 -0.0317
12988W        W44204   8.973  16.787   1.670 -0.1590 -0.1518 -0.0308
12989W        W44205   5.382  25.388  10.033  0.1169  0.1201  0.2966
12990W        W44206  25.098  19.486   9.733 -0.1078  0.1985  0.1892
12991W        W44207  21.442   7.795  10.161 -0.0277 -0.2418  0.1463
12992W        W44208  19.329  25.393   0.718  0.0167 -0.0737 -0.4483
12993W        W44209  17.810  19.353   1.303  0.1706  0.0786  0.4201
12994W        W44210   4.399  20.198   0.499 -0.0717  0.0388  0.2530
12995W        W44211  13.032   5.385   1.636 -0.0957  0.0800  0.1261
12996W        W44212   8.403   2.739   9.555 -0.1375 -0.0782 -0.2072
12997W        W44213   8.174  10.273   3.016  0.1642 -0.0940 -0.2513
12998W        W44214   0.273  11.108   0.888  0.1771  0.1306  0.0674
12999W        W44215  26.046   6.094   2.785  0.0125  0.1956 -0.0267
13000W        W44216  16.914  17.094   3.212 -0.0011 -0.3128  0.3829
13001W        W44217   2.849  18.001   7.866  0.0865 -0.0196  0.0733
13002W        W44218  15.306  16.864   0.563  0.2988  0.0336  0.0399
13003W        W44219   4.837  12.007   1.533  0.2402 -0.3918  0.1569
13004W        W44220   9.323  16.288   0.446 -0.1149  0.0486  0.2172
13005W        W44221  16.708  17.600   0.455  0.0989 -0.0424  0.1403
13006W        W44222  13.852  20.064   0.672  0.0195 -0.0572 -0.0178
13007W        W44223  23.618   2.973   9.363 -0.0664  0.1630 -0.0388
13008W        W44224  16.857   1.178   4.470  0.3140 -0.3004 -0.3291
13009W        W44225  15.539  27.473   3.593  0.1416  0.3239  0.1235
13010W        W44226  25.179  20.140   1.408 -0.0514  0.0212 -0.0787
13011W        W44227  19.258  19.084   3.162  0.0597  0.0506 -0.1818
13012W        W44228   3.202   2.940   0.517  0.0435  0.3410  0.1639
13013W        W44229  10.461  26.857   0.168 -0.1577  0.3305  0.0267
13014W        W44230  15.910   7.826  10.267  0.1850  0.1492  0.1152
13015W        W44231  27.168  26.701   9.250 -0.0397 -0.0718  0.3594
13016W        W44232  23.832  24.161   3.494  0.3540 -0.1784  0.0258
13017W        W44233   8.465  20.942   0.207 -0.1411 -0.2667  0.1310
13018W        W44234   2.483   6.837   2.547  0.3637 -0.0954  0.0460
13019W        W44235   4.162   2.665   1.488  0.0125  0.1559 -0.3068
13020W        W44236   9.809  22.816   7.758  0.1604 -0.4121 -0.0870
13021W        W44237   1.059  20.636   0.148 -0.0492 -0.2023  0.3328
13022W        W44238   1.606   7.401   0.846 -0.0132  0.0249 -0.1139
13023W        W44239  23.242   7.650  10.396 -0.0022 -0.1050  0.0061
13024W        W44240   5.119  13.816   7.705  0.0944 -0.0472 -0.2329
13025W        W44241  18.962   6.051   1.808  0.0523  0.0754  0.2645
13026W        W44242  26.827   2.823   2.329  0.0653 -0.1036  0.3751
13027W        W44243  15.142  12.923   2.159  0.0622 -0.1419  0.2737
13028W        W44244  16.574   8.400   8.965 -0.1084  0.2824 -0.1585
13029W        W44245  10.318  16.325   8.743 -0.1296 -0.2060 -0.2520
13030W        W44246   6.875   2.848   8.687 -0.0375 -0.1924  0.0872
13031W        W44247   5.377   3.165   2.724 -0.0337 -0.1499  0.0535
13032W        W44248   0.579  15.905   2.410 -0.2949  0.0648  0.0213
13033W        W44249   8.466   1.305   2.219 -0.1253 -0.0815  0.0080
13034W        W44250   5.489   9.437   2.392  0.2045 -0.1764 -0.0661
13035W        W44251   2.371  16.189   0.152  0.0109  0.1169  0.0180
13036W        W44252  18.324   0.494   0.489  0.0634  0.1550 -0.2259
13037W        W44253   1.543  11.896   7.838  0.1646  0.2035  0.0511
13038W        W44254  25.992   5.191   2.806 -0.1515 -0.1200 -0.0762
13039W        W44255   9.656  21.532   8.568  0.1160 -0.1165 -0.0495
13040W        W44256  22.519   7.787   9.727 -0.2793  0.0394  0.1140
13041W        W44257   2.787  12.358   9.035  0.2985  0.2735 -0.1924
13042W        W44258  26.948   9.917   0.376 -0.0905 -0.0810 -0.2457
13043W        W44259  18.910  20.244   9.526 -0.0620  0.1930  0.0545
13044W        W44260  11.630  21.035   8.690 -0.1311  0.0033  0.3099
13045W        W44261  12.985   8.910   7.825  0.1450  0.0639 -0.0732
13046W        W44262  22.811   1.801   9.175  0.2375  0.2263  0.2231
13047W        W44263   2.261   6.452   3.648 -0.3585  0.1568  0.1175
13048W        W44264   8.881  13.818   2.618 -0.0457 -0.2673 -0.0175
13049W        W44265  13.960   6.061   0.678 -0.0261  0.2634  0.1304
13050W        W44266  19.698  25.753   2.825  0.1552 -0.0073 -0.1033
13051W        W44267   9.623   5.264   8.806  0.1885 -0.0903 -0.0159
13052W        W44268  24.775   5.720   9.559 -0.0806  0.3011  0.1212
13053W        W44269   8.651  23.950   9.853 -0.2087 -0.2111  0.0895
13054W        W44270  25.435   7.634   9.897  0.2132 -0.1635 -0.0077
13055W        W44271  20.090  18.172   9.378 -0.2124 -0.0763 -0.1319
13056W        W44272  24.157  24.104   9.372  0.0699  0.2424  0.2795
13057W        W44273  25.486   0.476   7.834  0.1664  0.0532  0.0282
13058W        W44274  18.647   3.777  10.019 -0.0897 -0.2022 -0.0305
13059W        W44275   6.402  25.814   8.383 -0.1322  0.1603 -0.2350
13060W        W44276   3.310   4.917   0.772 -0.0678  0.0794  0.0029
13061W        W44277  20.863   4.317  10.314  0.3616 -0.1615 -0.0844
13062W        W44278  24.297  22.996   1.461 -0.2811  0.1794 -0.0484
13063W        W44279   3.061  14.637   0.877 -0.1209 -0.4632 -0.1880
13064W        W44280  19.662   0.068   1.071 -0.0893 -0.0514 -0.1583
13065W        W44281  19.329   5.728   3.519 -0.1489  0.1192 -0.0918
13066W        W44282  23.949  20.358   9.402 -0.0790 -0.2057  0.1413
13067W        W44283   8.203  10.965   1.299 -0.1112 -0.2297  0.2433
13068W        W44284  11.134   3.034   0.508 -0.0277 -0.1791  0.0613
13069W        W44285  20.896   5.109   2.684  0.2458 -0.2252  0.5199
13070W        W44286  23.066   8.609  10.455  0.0331  0.0532  0.0150
13071W        W44287   1.692   9.142   3.147  0.2688 -0.1261  0.1735
13072W        W44288  16.804  20.412  10.317 -0.1181 -0.1108 -0.0257
13073W        W44289  16.169  20.522   8.323 -0.0691 -0.0421 -0.3691
13074W        W44290  11.390  19.393   0.528  0.3299 -0.3350 -0.3163
13075W        W44291   1.089   1.446   1.853 -0.0192 -0.0896  0.0537
13076W        W44292  18.791  23.578   0.648  0.1197 -0.2131 -0.2798
13077W        W44293  17.453  19.901   0.846  0.1464  0.0323 -0.0551
13078W        W44294  24.654  25.324   2.196  0.0221 -0.0037 -0.2907
13079W        W44295   6.834   4.200  10.343  0.1527  0.0631  0.1859
13080W        W44296  24.673  26.967   2.667  0.1973  0.2767 -0.2891
13081W        W44297   1.994   4.684   0.497  0.0574  0.0448  0.0204
13082W        W44298  18.328  22.110   1.296  0.0479  0.0047 -0.2190
13083W        W44299   0.449   6.931  10.241 -0.0544  0.0699  0.2487
13084W        W44300   9.934   5.448   3.344 -0.1952 -0.0468  0.0272
13085W        W44301  21.381  24.383   0.198  0.0367 -0.2065 -0.1828
13086W        W44302  23.850   2.110   9.366 -0.2426  0.2049  0.1019
13087W        W44303  19.008  11.622   0.995  0.0182 -0.1703  0.0048
13088W        W44304  18.553   1.571   9.684 -0.2021 -0.1255 -0.1118
13089W        W44305   3.212  26.358   1.521  0.1287  0.2095 -0.2018
13090W        W44306  13.366   6.405   1.206  0.0866  0.1667 -0.0790
13091W        W44307   6.198  14.088   2.328  0.1414  0.3376  0.1915
13092W        W44308   7.121   9.930   2.173  0.2928  0.0593  0.0647
13093W        W44309  18.830   8.601   7.970  0.0411 -0.0261 -0.1753
13094W        W44310   8.346   7.857   7.383 -0.0163  0.0462  0.0910
13095W        W44311  25.360   4.063   2.743 -0.1156  0.0625 -0.2093
13096W        W44312   6.942   9.221   0.960  0.0216  0.0543  0.3141
13097W        W44313  17.964  24.532   1.840 -0.1261 -0.0796  0.1802
13098W        W44314   4.797   1.212   2.015 -0.2378 -0.0740  0.1247
13099W        W44315  26.988   9.616   8.397  0.0464  0.0833  0.0976
13100W        W44316   8.455   9.147   0.677 -0.1900 -0.0193 -0.0836
13101W        W44317  11.757  25.559   7.655  0.2859  0.2743 -0.1085
13102W        W44318   9.491  15.041   1.391  0.0217 -0.1743 -0.1706
13103W        W44319   2.304  24.067  10.336 -0.0244 -0.2470 -0.1468
13104W        W44320  24.197   1.644   8.232 -0.3988 -0.0898 -0.0603
13105W        W44321  26.488  18.936   3.621  0.0256 -0.3034  0.0421
13106W        W44322   2.352  22.890   8.017 -0.1264 -0.0101  0.2161
13107W        W44323  16.866   1.943   8.916  0.0064 -0.0166  0.4194
13108W        W44324  19.158   4.342   0.423  0.0703 -0.0958  0.3080
13109W        W44325  11.912  10.022   0.914 -0.0782  0.0454 -0.2147
13110W        W44326  11.663   6.140   8.952 -0.1120 -0.1645 -0.0765
13111W        W44327   3.760  21.951   9.442  0.2496 -0.0992 -0.0339
13112W        W44328   8.459  13.762   0.392  0.1719 -0.1204  0.0899
13113W        W44329  18.567  24.429   0.464  0.4620 -0.2373 -0.0846
13114W        W44330  11.397   6.649   2.736  0.0787  0.0448 -0.0319
13115W        W44331  12.697   8.096   8.018  0.3962  0.0443  0.2348
13116W        W44332  20.130  10.530   7.633 -0.0534  0.0341 -0.4521
13117W        W44333  20.539  12.878   2.006  0.2569 -0.0894 -0.2586
13118W        W44334   6.003  19.783   0.212  0.2805  0.0184  0.0965
13119W        W44335  14.797  15.787   2.083 -0.0973 -0.0725  0.0928
13120W        W44336  22.245  22.337   7.920 -0.0982 -0.1445 -0.1477
13121W        W44337  15.233   2.826   0.385  0.0439 -0.1684  0.3161
13122W        W44338   8.693  19.797   7.513 -0.0226 -0.3812  0.3622
13123W        W44339   5.786  24.275   3.296  0.1326 -0.2104 -0.1593
13124W        W44340  21.728   2.462   8.474 -0.2771 -0.0527 -0.1180
13125W        W44341   5.907  13.282   0.778  0.0181  0.1040 -0.0513
13126W        W44342   1.536  25.047   3.073  0.0175 -0.1436  0.2914
13127W        W44343  13.116   2.284   8.639  0.1270 -0.0908  0.0945
13128W        W44344  24.665  20.227   1.464 -0.2301 -0.4225 -0.0408
13129W        W44345  13.572   9.074   3.100 -0.3444  0.0222 -0.1242
13130W        W44346   4.392  19.167   9.476  0.2277 -0.1448 -0.1835
13131W        W44347  21.528  15.289   9.106  0.1639 -0.0863  0.0257
13132W        W44348   3.700   8.409   8.165 -0.0235  0.1445  0.2428
13133W        W44349   9.473   0.429   7.371  0.3481 -0.0664 -0.0657
13134W        W44350   5.973  20.659   0.949 -0.0749 -0.0684 -0.2265
13135W        W44351   7.274  26.252   8.015  0.0583 -0.2970  0.1732
13136W        W44352  20.829  20.309   9.502 -0.0373 -0.1020  0.1468
13137W        W44353  24.648  18.546   0.532  0.2098 -0.1405  0.1942
13138W        W44354  14.329   0.114   0.105  0.0776  0.1048  0.1819
13139W        W44355  16.509   4.980   9.210 -0.3204  0.2086 -0.0994
13140W        W44356   0.838  19.185  10.011  0.0589  0.0236 -0.1003
13141W        W44357   0.366  23.643   2.478  0.0685 -0.1409  0.2699
13142W        W44358  13.537  13.665   1.056 -0.3936 -0.0294  0.1706
13143W        W44359  24.752  22.479   8.891 -0.1926  0.0510 -0.0292
13144W        W44360  26.138   3.425   2.378 -0.2808 -0.1991 -0.5809
13145W        W44361  24.945  17.639  10.270  0.1474  0.1270  0.0790
13146W        W44362  10.122  16.095   3.286  0.2366  0.0371  0.0127
13147W        W44363   1.105   3.643   2.098  0.0867 -0.4517  0.1404
13148W        W44364  14.386   9.356   2.164 -0.0902 -0.0242  0.2841
13149W        W44365  26.349  13.004   2.519  0.2478  0.3629  0.0151
13150W        W44366  19.130   1.646   9.696 -0.4659  0.1469 -0.5789
13151W        W44367  17.222  23.486   9.042 -0.2049  0.0508 -0.5251
13152W        W44368  15.237  17.215   8.728 -0.2426  0.1184 -0.0079
13153W        W44369  14.546   4.538   8.496 -0.0484  0.0143 -0.1338
13154W        W44370   1.422   7.895   3.081 -0.2614  0.1035  0.1696
13155W        W44371  20.024  26.583   0.231 -0.0274  0.3254 -0.1640
13156W        W44372  17.447   0.979   3.267 -0.3320  0.1596  0.0727
13157W        W44373  11.011  17.343   7.594  0.0406  0.2990 -0.1049
13158W        W44374  17.993  12.651   7.596  0.4946  0.2686  0.3809
13159W        W44375   0.244   5.162   1.839  0.0447 -0.2363 -0.1606
13160W        W44376   1.832  18.806   1.131 -0.2665 -0.0866  0.0297
13161W        W44377  24.603   7.182   9.114 -0.1041  0.0326 -0.0662
13162W        W44378  17.205   5.597   8.901  0.0839  0.2449 -0.2395
13163W        W44379  12.251  19.353   3.129  0.1228  0.3180  0.0104
13164W        W44380  13.339  18.444   0.499 -0.0831  0.1402 -0.2261
13165W        W44381  26.398  26.579   8.806  0.1472  0.1028  0.0927
13166W        W44382  24.838   0.457  10.034 -0.1246 -0.0363 -0.0201
13167W        W44383  10.767   5.617   0.488 -0.0654 -0.3086  0.0688
13168W        W44384   3.980   7.263   9.283 -0.1735 -0.4594 -0.0944
13169W        W44385   4.633  25.561   2.798 -0.0086 -0.0087 -0.0024
13170W        W44386  11.986  12.134  10.513  0.0011 -0.0765  0.1372
13171W        W44387  23.431  26.424   2.319 -0.1798 -0.0685  0.1915
13172W        W44388  11.045  15.094   2.798  0.3257  0.0378  0.0370
13173W        W44389   1.049  14.129   3.137  0.0788 -0.2837 -0.0662
13174W        W44390  25.675  20.259   1.559 -0.1021 -0.1328  0.0490
13175W        W44391  23.653  20.629   3.501 -0.1090  0.2109  0.4900
13176W        W44392   8.590   9.662   0.970 -0.0519 -0.2387  0.2705
13177W        W44393   9.931  17.874   0.170  0.2325 -0.0861  0.3641
13178W        W44394  17.579  15.624   1.518 -0.2212 -0.2946 -0.2231
13179W        W44395  24.339  20.093   3.018  0.0312 -0.1532  0.2243
13180W        W44396  15.735  21.297   2.847 -0.1532 -0.0197  0.1305
13181W        W44397  26.192  21.206  10.224 -0.1026 -0.1506 -0.6617
13182W        W44398   5.349  13.192   8.597 -0.0948  0.1835  0.1318
13183W        W44399  10.835  25.413  10.443  0.1726  0.2305  0.3106
13184W        W44400   3.464  12.517   8.453 -0.0496 -0.1009 -0.0744
13185W        W44401  21.475  12.984   9.712 -0.3061  0.2712 -0.0356
13186W        W44402  13.306  19.352   3.268  0.2289  0.0615  0.0498
13187W        W44403  27.103  16.774   0.413 -0.1311 -0.0304 -0.0442
13188W        W44404  24.870  15.012   9.715  0.0520 -0.2825  0.2692
13189W        W44405   7.635   9.736   0.864  0.1935  0.0726  0.3567
13190W        W44406   7.580   0.802   7.761  0.3002 -0.0632 -0.0740
13191W        W44407   3.134   1.572   0.957  0.1428  0.0601 -0.1033
13192W        W44408   2.055  25.075   2.964  0.1275 -0.1643  0.3382
13193W        W44409   9.723  20.507  10.390  0.0344 -0.3390 -0.0617
13194W        W44410   8.398   8.252   9.151 -0.3343  0.1272  0.4968
13195W        W44411   7.033  13.594   0.369  0.0080 -0.0765 -0.2555
13196W        W44412  25.209  14.741   9.075  0.1266 -0.0943 -0.4892
13197W        W44413  24.666   8.203   2.256 -0.0515  0.3495  0.3008
13198W        W44414  13.898   8.603   1.511 -0.2078 -0.0184 -0.1209
13199W        W44415   2.363   8.879   8.363 -0.3923 -0.0722 -0.2118
13200W        W44416   6.834  17.570   9.567 -0.0886 -0.0247 -0.0160
13201W        W44417   0.732  22.613   2.737  0.2261  0.1786 -0.0848
13202W        W44418  26.650  13.460   1.729 -0.0469 -0.0197 -0.2527
13203W        W44419  16.962  13.941   3.343  0.0998  0.0960 -0.1565
13204W        W44420  19.897  14.983   2.789  0.2154  0.4572  0.2266
13205W        W44421  19.220  14.989   2.306 -0.0191 -0.1071 -0.1605
13206W        W44422  25.935   0.726   9.546  0.0792 -0.2514  0.0475
13207W        W44423  18.241  11.604   7.003 -0.0113  0.2434  0.0974
13208W        W44424  14.148   4.297   0.898  0.1915  0.1785 -0.0298
13209W        W44425  26.147   4.853   0.831 -0.2103  0.0300  0.0765
13210W        W44426  23.579  12.733   7.756 -0.1374 -0.2544  0.2568
13211W        W44427   9.511   8.183   1.095 -0.1410  0.0924 -0.4491
13212W        W44428   4.354   9.114   9.974  0.2754  0.0973  0.4052
13213W        W44429  24.348   1.274   2.530 -0.2503 -0.1066  0.0917
13214W        W44430   4.759  20.520   2.417  0.1829  0.1323 -0.2019
13215W        W44431  19.866  19.590   3.502  0.3163  0.2009 -0.2648
13216W        W44432  21.975  16.473   0.821  0.3471 -0.1715  0.0780
13217W        W44433  16.352  13.677   9.026 -0.0485 -0.0970 -0.0364
13218W        W44434   1.950   9.224   1.802 -0.2368  0.1188  0.0120
13219W        W44435   7.831  12.473   9.005  0.0579  0.0545  0.1024
13220W        W44436   2.647   4.793   9.835 -0.0257  0.0190 -0.6110
13221W        W44437  26.202   6.861   3.081  0.1101  0.0328  0.0941
13222W        W44438   3.618  14.081  10.357  0.0445  0.0213  0.1354
13223W        W44439   2.708  16.507  10.358  0.0691 -0.2997  0.3092
13224W        W44440  23.109  12.942   7.982  0.2165  0.1820  0.0252
13225W        W44441   6.724   7.365   0.638 -0.1486 -0.0441  0.0310
13226W        W44442  26.041   8.561   2.298 -0.0541 -0.2645  0.1436
13227W        W44443   8.751  22.370   1.367  0.1098 -0.2690  0.5362
13228W        W44444  15.309  18.495   2.682 -0.4342 -0.1258 -0.0555
13229W        W44445  11.330  18.831   3.589 -0.0110 -0.1406  0.1593
13230W        W44446  19.662  19.137   9.962 -0.0309 -0.2668 -0.2229
13231W        W44447  17.611   3.093   9.544  0.1296 -0.1551  0.1597
13232W        W44448  27.339  24.629   7.504 -0.3210  0.0299 -0.0427
13233W        W44449   6.150  13.404   2.763  0.2365 -0.0158  0.0306
13234W        W44450   7.297   9.596   3.020 -0.1231 -0.0286  0.0014
13235W        W44451   5.218  19.030  10.421  0.0494  0.3662 -0.3184
13236W        W44452   4.963  21.078   1.216 -0.0584  0.1410 -0.0845
13237W        W44453  22.727  16.915   8.492  0.0855 -0.1982 -0.0745
13238W        W44454  11.789  23.500   1.733  0.0233 -0.0963  0.2026
13239W        W44455  23.675   0.506   8.574  0.0082  0.3686 -0.2405
13240W        W44456  11.813   8.873   0.337  0.1754 -0.3942  0.2580
13241W        W44457   5.923   3.511   1.784  0.0813 -0.0954  0.2503
13242W        W44458  15.888  20.600   7.859 -0.2243  0.1266  0.0913
13243W        W44459   8.951  15.354   9.433  0.0335  0.1736 -0.0419
13244W        W44460  12.107   5.172   1.504 -0.2361  0.1266  0.3285
13245W        W44461   2.240  25.699   1.461 -0.2934  0.2653 -0.0769
13246W        W44462  23.300  19.803   7.363 -0.1964  0.0907 -0.0781
13247W        W44463  23.390  26.425   7.223  0.2424  0.3174 -0.3743
13248W        W44464   4.995   2.621   8.178  0.3322 -0.3239  0.1827
13249W        W44465  14.775  22.099   3.440  0.0059 -0.3098  0.1925
13250W        W44466  14.928   9.781   9.190 -0.1780 -0.0101 -0.3850
13251W        W44467  12.693   3.783  10.118 -0.0147 -0.0314 -0.2238
13252W        W44468  13.207  24.726   0.891  0.2020  0.0382  0.1202
13253W        W44469  13.624  11.688   0.951  0.0352  0.1865  0.1850
13254W        W44470  16.723   7.831   7.624 -0.0714  0.1420  0.0132
13255W        W44471  20.243  18.559   9.818 -0.0158  0.1258 -0.1408
13256W        W44472  26.431   0.430   9.735 -0.0729 -0.0989  0.0980
13257W        W44473   7.968   0.336   1.350 -0.2138 -0.2864  0.1241
13258W        W44474  26.667  12.006   8.628 -0.2072 -0.0831 -0.1741
13259W        W44475  11.542  21.491   2.288  0.1670  0.0939  0.0841
13260W        W44476   0.307  24.417   8.806 -0.2200  0.1010  0.1630
13261W        W44477  22.464  24.441  10.432  0.0301 -0.1489 -0.1862
13262W        W44478   5.214  18.630   1.930  0.0336  0.1969  0.0020
13263W        W44479  14.136  19.762   1.541  0.2514  0.2182 -0.2363
13264W        W44480   3.019  19.930   8.048  0.1728  0.3198 -0.0661
13265W        W44481  21.277  22.264   3.496  0.2441 -0.2593 -0.1819
13266W        W44482  17.883  22.434   9.231 -0.4991  0.1209  0.0107
13267W        W44483  23.414  16.077   9.801 -0.1331  0.2197  0.1616
13268W        W44484  15.168   4.076   3.360  0.0641 -0.2374 -0.2112
13269W        W44485   1.380  16.053   9.689  0.3713 -0.2210  0.1120
13270W        W44486  22.760  25.638  10.313  0.0435  0.1290  0.0782
13271W        W44487  17.263   4.905   1.743 -0.0215 -0.0099  0.2948
13272W        W44488  24.428  12.569   9.990  0.0139  0.2378 -0.3233
13273W        W44489   9.832  18.750   8.251  0.1477 -0.0896 -0.3474
13274W        W44490  15.307  23.074   7.463  0.0119  0.2185 -0.3512
13275W        W44491   4.528  13.073   8.207  0.0327  0.0371 -0.0458
13276W        W44492   6.288  13.848   8.106  0.2161 -0.0595  0.4761
13277W        W44493  14.179  27.223   2.370 -0.1653 -0.0773  0.0037
13278W        W44494  12.517  27.460   1.424  0.1999 -0.0827 -0.0301
13279W        W44495  21.850   9.970   1.689  0.0895 -0.3196  0.3335
13280W        W44496  11.483   8.148   9.905 -0.0591  0.1574  0.3064
13281W        W44497   1.163   1.463   1.354 -0.0560  0.0509  0.0441
13282W        W44498  20.153  13.859   9.398 -0.0869 -0.2882  0.2195
13283W        W44499   5.758  17.146  10.449  0.0385  0.0013  0.1250
13284W        W44500  22.403  25.085   7.756  0.2002 -0.1029  0.3623
13285W        W44501   7.960  27.307   2.140  0.2696 -0.0857  0.1291
13286W        W44502  22.063  10.559   9.206  0.1524  0.0263  0.0008
13287W        W44503  25.581  13.334   3.373 -0.1474 -0.2521 -0.3512
13288W        W44504  12.401  16.006   2.253  0.1423 -0.0539  0.2811
13289W        W44505  13.933   1.048   9.742 -0.0801  0.1130 -0.1560
13290W        W44506   8.693  10.720   1.997  0.1303 -0.2001  0.0754
13291W        W44507  15.072   3.651   2.742  0.0596 -0.0833 -0.2333
13292W        W44508   2.862  13.983   1.395  0.1793  0.2423 -0.1329
13293W        W44509   4.501  22.858   0.581 -0.0678  0.0026 -0.1304
13294W        W44510   5.483  16.437  10.407  0.1860 -0.1138  0.1405
13295W        W44511   7.867  26.982   9.336  0.2949 -0.0327  0.0388
13296W        W44512   1.393   6.165   2.062 -0.0680  0.2690 -0.2441
13297W        W44513   5.042  10.641   0.117 -0.1292 -0.1828  0.1597
13298W        W44514  25.418  13.126   9.701  0.2257  0.1531  0.1671
13299W        W44515   5.423  24.489   2.604  0.0536 -0.1208  0.0191
13300W        W44516  21.737  14.090   2.195 -0.0404 -0.0310  0.2955
13301W        W44517  24.455   0.035   8.497  0.1561  0.2545 -0.1552
13302W        W44518  16.155  23.555   1.908  0.1624 -0.2233 -0.5118
13303W        W44519  11.316   9.323   3.390 -0.1170 -0.0124  0.0187
13304W        W44520  18.710  22.326   9.847  0.0009 -0.0635  0.0269
13305W        W44521  25.956  21.421   8.390 -0.1913 -0.1893 -0.0027
13306W        W44522  17.863  10.799   2.672  0.0977 -0.0870  0.0258
13307W        W44523  11.821  10.821   2.714  0.0720  0.0513  0.0704
13308W        W44524  10.232   5.713   2.881 -0.0187  0.0827  0.4645
13309W        W44525  12.156   4.398   2.372 -0.1604  0.0455  0.1179
13310W        W44526   3.291   7.670   0.440  0.2282  0.0870  0.0114
13311W        W44527   1.521  26.676   1.786 -0.2641  0.2139 -0.0430
13312W        W44528   7.342   8.450   1.743 -0.3423 -0.2475  0.1189
13313W        W44529  12.282  26.120   9.759  0.2825 -0.1388  0.2192
13314W        W44530  13.912  10.928   7.549 -0.0114  0.0042 -0.0571
13315W        W44531  11.304  14.452   3.132  0.1169  0.1410  0.4687
13316W        W44532   0.608  12.866   9.129  0.0055 -0.1564 -0.2827
13317W        W44533  20.090  21.535   1.091  0.0771  0.1747 -0.2458
13318W        W44534  24.375   4.097  10.224  0.0233 -0.1586 -0.0220
13319W        W44535  20.043  16.300   9.714  0.2582  0.3929 -0.1874
13320W        W44536   6.653   6.626   0.173 -0.0662  0.2164  0.1378
13321W        W44537   8.274  24.584   8.720 -0.0443  0.1316 -0.0014
13322W        W44538   5.271   6.942   8.957  0.3285  0.3323  0.2153
13323W        W44539  24.624  26.484   7.474 -0.0179 -0.0813  0.1043
13324W        W44540   7.810   2.672   1.360 -0.0823  0.2820  0.0827
13325W        W44541   2.934   8.119   3.920  0.1533  0.0100  0.0049
13326W        W44542  23.299   5.013   7.675 -0.1853  0.2550 -0.0234
13327W        W44543  11.923  26.875   0.593 -0.1151  0.2388  0.0323
13328W        W44544   5.808  25.328   1.825 -0.0569  0.1379 -0.0667
13329W        W44545   1.290  27.233   9.151 -0.1823 -0.1524  0.1016
13330W        W44546   6.224  18.158   8.606 -0.0733 -0.0953 -0.2427
13331W        W44547  18.461   1.762   0.904 -0.1008 -0.0175  0.0561
13332W        W44548   8.643   2.150   0.318 -0.2905  0.0306  0.1458
13333W        W44549   9.878  12.654   1.145  0.1021  0.0533  0.0843
13334W        W44550   1.312   1.652   2.757 -0.1702  0.0886  0.1750
13335W        W44551   8.093  20.760   0.495  0.0963 -0.1612  0.1179
13336W        W44552  17.025   8.881   0.580  0.1012 -0.0899 -0.0105
13337W        W44553   2.010  24.753   0.321  0.1635  0.0257 -0.0991
13338W        W44554  25.654   1.479   8.496  0.0036  0.1360  0.1559
13339W        W44555   5.359  25.311   0.037 -0.1745 -0.0846  0.1156
13340W        W44556  14.651   5.358   0.580  0.0066  0.1597  0.0463
13341W        W44557  22.516  15.136   0.757 -0.2689 -0.4158 -0.0408
13342W        W44558  19.704  10.312  10.153  0.1926  0.0268  0.0544
13343W        W44559  27.262   1.595   3.761  0.0461  0.1278  0.1427
13344W        W44560  15.872  20.121   2.501 -0.0838  0.0287 -0.3365
13345W        W44561  20.594  13.102   8.939 -0.1359 -0.0065  0.0344
13346W        W44562  19.321  15.497   7.672  0.0139 -0.1489  0.0229
13347W        W44563  23.288  21.757   1.990 -0.0795  0.0434  0.0317
13348W        W44564  20.967  18.786   0.555  0.0551 -0.3899  0.3602
13349W        W44565  12.278  17.583   8.665  0.2152  0.1880 -0.1686
13350W        W44566  19.125  21.699   2.691  0.1019 -0.0725  0.0033
13351W        W44567  12.382  15.089   8.928  0.1558  0.3872 -0.0660
13352W        W44568   3.215   2.257   0.276  0.0394  0.0776 -0.1037
13353W        W44569  22.771  14.796   3.685  0.0836 -0.2309 -0.0879
13354W        W44570  23.092   2.682   1.646 -0.0009  0.0837 -0.2505
13355W        W44571  11.488   5.221  10.304 -0.0768  0.0309  0.0181
13356W        W44572   3.383  19.967   1.186 -0.1246  0.2559 -0.1118
13357W        W44573  11.338  22.010   2.812  0.0159 -0.0303  0.4400
13358W        W44574  26.981  12.672   3.326 -0.2146  0.0980 -0.0551
13359W        W44575  15.076   6.041   9.061 -0.1438  0.0535 -0.0077
13360W        W44576   8.859  21.295   8.771  0.1989 -0.0322 -0.1142
13361W        W44577  17.110   8.380   8.944 -0.0193  0.2329  0.1496
13362W        W44578  19.615   0.270   7.191  0.0549 -0.0455  0.0085
13363W        W44579   7.667   6.938   9.410  0.0461  0.1353 -0.0122
13364W        W44580  27.474   6.388   8.299  0.0852 -0.1392  0.1340
13365W        W44581  14.960   9.274   8.303  0.1800 -0.1124  0.0435
13366W        W44582  26.910  12.358   9.415 -0.2258 -0.0861  0.1368
13367W        W44583   3.235  18.729   9.697  0.0531 -0.1074  0.4975
13368W        W44584   2.117  11.137  10.352  0.3566  0.1019 -0.0804
13369W        W44585  23.608  11.643   3.059 -0.0990 -0.0092  0.1949
13370W        W44586   9.577  19.914   1.790 -0.1927 -0.0963  0.0766
13371W        W44587  17.748  11.645   1.233  0.4866  0.3031  0.2858
13372W        W44588  16.044  27.603   9.742  0.0477  0.0353 -0.2684
13373W        W44589   1.456  15.047   8.059  0.0924  0.0400  0.1513
13374W        W44590  13.506  23.013   7.914  0.0023  0.2283  0.2182
13375W        W44591   3.968   0.184   2.746  0.1491 -0.1245 -0.1405
13376W        W44592  24.810   7.587   4.077  0.3846  0.0489 -0.1927
13377W        W44593  24.635   9.097   8.930 -0.3998 -0.1378 -0.0841
13378W        W44594  17.185  24.832   8.276  0.3852  0.2687  0.0153
13379W        W44595  27.556   4.039   2.791 -0.2804  0.1870  0.0700
13380W        W44596  13.142  25.478   1.804 -0.1977  0.0022 -0.3173
13381W        W44597  19.902  26.067   9.470 -0.0616 -0.1260  0.0101
13382W        W44598   6.115  17.027   2.208 -0.4296  0.1694 -0.3051
13383W        W44599   7.167   9.943   1.071  0.0255 -0.0589 -0.0601
13384W        W44600  18.205  18.719   2.637  0.3318  0.1629 -0.0802
13385W        W44601   2.629  12.779   8.108 -0.0314 -0.0671 -0.3671
13386W        W44602   5.615  16.216   0.504 -0.0822  0.2142  0.0265
13387W        W44603  16.172  22.404   7.332  0.0851  0.0551  0.2531
13388W        W44604   3.759  27.511   9.288  0.0303  0.4537 -0.1631
13389W        W44605  11.188   7.042   8.481  0.0386 -0.1823  0.0693
13390W        W44606   9.108   3.494   9.239  0.3665 -0.0507  0.0807
13391W        W44607  10.384   9.870   1.740  0.0366  0.1503 -0.0243
13392W        W44608   4.772  20.596   1.868 -0.1181  0.3049 -0.1145
13393W        W44609  10.349  21.833  10.438 -0.1831  0.0434 -0.1050
13394W        W44610   0.056  15.092   9.213  0.1519 -0.2624 -0.1140
13395W        W44611  12.261  12.503  10.021  0.2713  0.1081  0.0468
13396W        W44612  20.864  14.406  10.093 -0.1794 -0.1533 -0.1341
13397W        W44613  24.887  16.743   2.719  0.0898 -0.0133 -0.1569
13398W        W44614  17.588   5.824   2.006 -0.3993  0.0646 -0.3463
13399W        W44615  20.785  13.028   1.592  0.1742 -0.0598  0.3478
13400W        W44616   3.014  10.197   2.099 -0.2133 -0.1215  0.1698
13401W        W44617  13.636   2.894   9.869 -0.1114 -0.2826 -0.1411
13402W        W44618   8.922  11.833  10.382 -0.2194  0.0791 -0.0793
13403W        W44619  12.684  16.904   3.227  0.0120 -0.1596  0.2734
13404W        W44620  22.055   1.458   0.919 -0.1821 -0.1704  0.1655
13405W        W44621   1.041  13.609   9.917  0.0841  0.2149  0.1738
13406W        W44622   8.769   8.796   8.562 -0.0761 -0.0372 -0.2757
13407W        W44623   6.100   8.820   1.183  0.2188  0.2298 -0.4605
13408W        W44624  21.499   9.021   0.330 -0.1748  0.1398 -0.1972
13409W        W44625  26.511   7.052   0.843 -0.0134  0.0097 -0.2562
13410W        W44626   5.916  24.222   1.107 -0.2972 -0.1174 -0.0610
13411W        W44627   6.928  22.033   8.792 -0.3185  0.3656 -0.1550
13412W        W44628  15.704  14.089   6.921 -0.2833  0.2298  0.0144
13413W        W44629   4.179  27.047   9.477  0.2245 -0.1065 -0.3390
13414W        W44630   7.936   5.671   2.520  0.0434 -0.1811 -0.1070
13415W        W44631   8.652   0.361   9.377  0.0293  0.0504  0.1775
13416W        W44632   0.606  27.487   9.311 -0.2999 -0.0924  0.1050
13417W        W44633   7.368  16.152   8.004  0.2834  0.3285  0.2077
13418W        W44634   1.190  17.748   1.305 -0.1282 -0.3248 -0.2164
13419W        W44635  10.754  26.072  10.152  0.0359  0.1722  0.0685
13420W        W44636  24.673  16.841   2.189 -0.1152 -0.2198 -0.0385
13421W        W44637  15.451  16.463   9.792  0.0714 -0.3555 -0.0789
13422W        W44638  20.805  19.423   3.290 -0.0087 -0.0888  0.1697
13423W        W44639   6.001  19.418   8.814  0.1105 -0.0708  0.0057
13424W        W44640  21.453  12.677   9.326 -0.2511  0.0904  0.1297
13425W        W44641   5.711  14.529   8.024 -0.1830 -0.2806 -0.1039
13426W        W44642  14.812  27.345   1.923 -0.1592  0.0508 -0.0078
13427W        W44643  14.883   9.735   7.627 -0.2963  0.1436  0.0512
13428W        W44644  16.930  16.520   2.283  0.1394  0.0394  0.1440
13429W        W44645  24.309  24.586   1.111 -0.4728 -0.0389 -0.0649
13430W        W44646   9.053   5.956   0.758  0.0365  0.0587  0.3194
13431W        W44647   2.817  12.406   2.805 -0.1037 -0.1946  0.2179
13432W        W44648  15.466  20.819   0.747  0.1143 -0.2594 -0.1260
13433W        W44649  21.058   2.074   9.330  0.2866 -0.1693 -0.0455
13434W        W44650   8.944  21.570   2.076 -0.0861  0.3244 -0.1190
13435W        W44651  14.129  20.836   2.577 -0.2943  0.2241  0.0992
13436W        W44652  27.510   4.385   0.409 -0.0839 -0.0646 -0.1283
13437W        W44653  16.324   3.883   8.643  0.1182  0.1837  0.1724
13438W        W44654   9.228  14.142   1.648 -0.0242 -0.1719 -0.2254
13439W        W44655  25.663   8.768   2.889 -0.0945  0.2821  0.1237
13440W        W44656   8.806  21.031   8.350 -0.0343  0.0728 -0.3436
13441W        W44657  20.221  25.444   1.019 -0.0566  0.3523  0.4252
13442W        W44658  20.451   0.184   1.732 -0.1480  0.0895  0.0860
13443W        W44659  16.492  15.187   8.870  0.0247  0.0441 -0.2825
13444W        W44660   8.738  23.778  10.345 -0.1469 -0.2030  0.3481
13445W        W44661  16.426  14.383   2.631 -0.1532 -0.1057  0.0678
13446W        W44662   9.568  15.554   9.759  0.1460  0.0915 -0.2271
13447W        W44663  27.066  12.389   0.163  0.0879  0.2118 -0.1837
13448W        W44664  18.307  15.809   9.596  0.3636  0.3382  0.2155
13449W        W44665   7.278  22.618   3.280 -0.0314 -0.2571 -0.0183
13450W        W44666   7.996   7.881   2.297 -0.0178 -0.1781  0.4335
13451W        W44667  21.071   7.707   8.854  0.1276 -0.2514 -0.1568
13452W        W44668  20.926  13.674   9.771  0.1167 -0.4011  0.1077
13453W        W44669   6.385   1.799   2.789 -0.2293  0.1086 -0.0486
13454W        W44670  23.588   3.199   8.088  0.0263  0.2454  0.0969
13455W        W44671   4.614   9.238   2.914 -0.1621 -0.4164  0.3525
13456W        W44672   8.406   1.276   0.667 -0.1005  0.0604 -0.1300
13457W        W44673   0.855  22.598   9.717  0.1805  0.1276 -0.0617
13458W        W44674   5.457  14.665   0.100  0.1169  0.0021 -0.0322
13459W        W44675   8.014   0.550   0.037 -0.0572  0.0269  0.0422
13460W        W44676  22.080  20.473   8.324  0.2172  0.2080  0.4639
13461W        W44677   2.573   8.334   1.118 -0.2068  0.0784 -0.0421
13462W        W44678  10.874  14.271   1.400  0.1971 -0.0711  0.2710
13463W        W44679  21.571  22.992   9.400 -0.1248 -0.3106 -0.1826
13464W        W44680  26.302  22.768   2.561  0.2571  0.0922 -0.1925
13465W        W44681  14.684   4.190   3.481 -0.1358  0.0870  0.2464
13466W        W44682  21.875   9.124   7.815  0.2320 -0.3210 -0.2140
13467W        W44683  18.407   6.581   8.931 -0.5873 -0.1745 -0.1171
13468W        W44684  26.819   7.971   2.641  0.4092 -0.1876 -0.2598
13469W        W44685  19.345  15.471   0.178 -0.3688 -0.0440 -0.3248
13470W        W44686  15.244   1.339   9.814 -0.0578  0.2791  0.0220
13471W        W44687  12.958  10.609   1.019  0.0143 -0.0504  0.2180
13472W        W44688  15.207  12.624   1.598 -0.0812  0.2190 -0.1110
13473W        W44689   4.694   7.636   7.539  0.2343  0.0204 -0.3310
13474W        W44690  13.303  26.859   0.824 -0.0394 -0.0446  0.0483
13475W        W44691   8.273   5.449   7.317  0.0466  0.1881 -0.1156
13476W        W44692  12.927  14.988  10.380 -0.0468  0.1917  0.0061
13477W        W44693  17.754   1.736  10.095  0.1413 -0.1474 -0.3322
13478W        W44694   4.174  20.102   8.109 -0.0949 -0.0923  0.0138
13479W        W44695   8.388   4.845   3.003  0.0929 -0.4789  0.3768
13480W        W44696  24.411   8.628   8.098  0.2677 -0.4786  0.0355
13481W        W44697   5.794  11.188   1.510 -0.0521  0.2351  0.1741
13482W        W44698   0.052  10.127   1.720 -0.3484  0.1923  0.0851
13483W        W44699   4.578   5.037   3.389 -0.0462 -0.1010  0.0129
13484W        W44700   3.417  24.877   9.230  0.2173 -0.0043  0.2704
13485W        W44701   2.429  16.276   0.753 -0.1996  0.0276 -0.0769
13486W        W44702  14.472  13.330   2.063 -0.2576 -0.0347  0.1060
13487W        W44703  20.717  18.657   1.983  0.4357 -0.0493 -0.1527
13488W        W44704  27.177  11.296  10.174 -0.0852  0.0179 -0.0599
13489W        W44705   8.802  16.277   2.028 -0.2232  0.1219  0.0566
13490W        W44706   7.382  22.584   8.629  0.0630  0.2248 -0.1444
13491W        W44707   2.369  22.137   2.800 -0.0773 -0.1118 -0.0801
13492W        W44708   0.570  26.370   8.869 -0.3037 -0.1476 -0.2809
13493W        W44709  11.069  24.254   8.644 -0.1631  0.2076  0.0584
13494W        W44710   8.359   0.495   8.886  0.0297 -0.0707  0.1535
13495W        W44711   6.224  19.101   9.973 -0.3357  0.1425  0.0896
13496W        W44712  22.430  20.600   7.938 -0.0287 -0.0884 -0.1671
13497W        W44713  19.518  13.714   1.513 -0.2672 -0.1769  0.3188
13498W        W44714   1.279   2.234   8.191  0.0177 -0.0346 -0.3284
13499W        W44715  20.948  27.483   8.430 -0.2360 -0.1443  0.0076
13500W        W44716   7.730  11.330   1.413  0.1447  0.3641  0.3811
13501W        W44717  12.096  10.664   2.276  0.2048  0.3027 -0.0855
13502W        W44718   9.298  26.923   9.903  0.1973  0.0842  0.2717
13503W        W44719  21.055   1.033   0.030 -0.0006 -0.2647 -0.0850
13504W        W44720   6.573  16.617   9.432 -0.0419  0.0556 -0.3687
13505W        W44721   3.248   2.403   8.193 -0.3094 -0.0365  0.0585
13506W        W44722   1.507  26.386   2.194  0.1676  0.3289 -0.0193
13507W        W44723   8.232  14.058  10.101 -0.1818  0.3163 -0.2369
13508W        W44724  11.853  10.163   3.103 -0.0005  0.3783 -0.2231
13509W        W44725  20.293  16.653   2.525  0.0718 -0.1929 -0.0274
13510W        W44726  24.895   8.698   8.028 -0.1868 -0.1872 -0.1900
13511W        W44727  26.310   2.430   9.071 -0.0494 -0.2812  0.2218
13512W        W44728  12.379  20.038   3.539 -0.1250  0.0450  0.1861
13513W        W44729   1.944  25.689   8.728 -0.3031 -0.3760  0.0329
13514W        W44730  18.792  18.460  10.087  0.1755  0.2269  0.1026
13515W        W44731   8.798   2.296   9.962  0.2186 -0.0627 -0.3055
13516W        W44732  23.967  21.793   3.221  0.0714  0.0273  0.1905
13517W        W44733  23.485  23.819   1.434  0.2541  0.1263  0.4098
13518W        W44734   6.773  11.224  10.124  0.2892 -0.0686 -0.0384
13519W        W44735  22.355   1.165   8.563 -0.2727  0.0440 -0.1259
13520W        W44736  25.466  14.122   9.556  0.1905 -0.0081 -0.1172
13521W        W44737  26.765   5.708   2.504 -0.0826 -0.1304  0.1094
13522W        W44738  21.964  26.421   2.766  0.1268  0.2835  0.0194
13523W        W44739   0.181  26.333   8.516 -0.1428  0.0665 -0.3656
13524W        W44740  17.308  17.102   9.943  0.2876 -0.0872  0.1207
13525W        W44741  25.858  15.055   1.218  0.3025  0.1415  0.3631
13526W        W44742   1.880  19.115   8.789  0.0574 -0.3043  0.0778
13527W        W44743   6.872   4.723   0.092 -0.0403  0.2321  0.2925
13528W        W44744   1.843   3.773   0.959 -0.0819 -0.0590 -0.1774
13529W        W44745   0.646  15.263   2.429 -0.4318 -0.2185 -0.2517
13530W        W44746  24.350  13.763  10.502 -0.0354 -0.3234  0.1838
13531W        W44747   0.936   3.201   9.520  0.0136  0.1981 -0.1232
13532W        W44748  24.907  22.197   8.160  0.1982 -0.1980  0.1973
13533W        W44749  23.746  15.294   1.663  0.0806 -0.4376 -0.0072
13534W        W44750  11.557  15.919  10.201 -0.0857 -0.1412 -0.1189
13535W        W44751  11.436  22.472   0.900 -0.1522  0.0055  0.0596
13536W        W44752  27.272  17.678   0.582  0.0065  0.1673  0.1670
13537W        W44753   1.642   1.565   2.425 -0.2333  0.2442  0.0067
13538W        W44754  11.249  18.665   8.800  0.0886 -0.4682 -0.2017
13539W        W44755  22.052  25.171   8.697  0.0996  0.0302 -0.2535
13540W        W44756   6.923   4.818   9.743  0.0366 -0.1091  0.2478
13541W        W44757  13.445   7.725   8.033  0.1050  0.1147 -0.0397
13542W        W44758  24.398  26.041   7.347 -0.1219 -0.0480 -0.0171
13543W        W44759  26.612  21.318   9.526 -0.1353  0.0183 -0.1017
13544W        W44760  26.428  15.547   2.517  0.3326 -0.0776  0.1340
13545W        W44761  21.251   2.730   0.584 -0.2718 -0.4243  0.3715
13546W        W44762  16.970  24.833   2.152 -0.0557  0.0096 -0.2686
13547W        W44763  24.905   4.363   2.640  0.1166  0.1021  0.0017
13548W        W44764  22.158  11.072   8.545  0.1457  0.3213 -0.0419
13549W        W44765  13.190  14.639   0.822 -0.0602  0.1727  0.0705
13550W        W44766  20.449  18.800   9.382  0.2640 -0.2188 -0.1882
13551W        W44767  21.777  21.304   1.140  0.0812 -0.2217 -0.0513
13552W        W44768   0.826   2.836   0.351  0.0369 -0.0456 -0.1162
13553W        W44769  14.856   6.738   2.381 -0.0773  0.0675 -0.0147
13554W        W44770   7.065   0.751   9.281  0.0675 -0.2730 -0.0395
13555W        W44771  19.471  13.822  10.242  0.0945 -0.2741  0.0763
13556W        W44772   2.632  19.728   0.876 -0.1728  0.0758  0.0819
13557W        W44773   2.462  14.938   0.373 -0.0072 -0.1050 -0.1132
13558W        W44774  15.811   0.985   1.288 -0.1250 -0.0754  0.0930
13559W        W44775   6.919  13.225   9.929 -0.2607  0.1030  0.0595
13560W        W44776  17.663   9.293   1.435  0.1499  0.1463 -0.1415
13561W        W44777   3.888   3.360   9.319 -0.0419 -0.2851 -0.2492
13562W        W44778  13.917   6.739   3.940  0.2072  0.1439 -0.1709
13563W        W44779  10.504   0.380   1.626 -0.0179 -0.0518 -0.1801
13564W        W44780  18.158  15.571   0.577  0.3394 -0.1296 -0.1697
13565W        W44781  13.598  21.667   9.527  0.0542 -0.1326 -0.2039
13566W        W44782  24.205  13.816   9.665 -0.2056  0.1260  0.1943
13567W        W44783  11.971  19.485   8.485 -0.2052 -0.3850  0.0353
13568W        W44784   4.037  24.118   0.249 -0.0034 -0.2014  0.0234
13569W        W44785  24.470  18.919   8.002  0.0657  0.0315  0.0610
13570W        W44786  16.863  15.967   1.854 -0.3211  0.2815  0.0773
13571W        W44787  19.055  15.793   0.493 -0.1862 -0.1707  0.0048
13572W        W44788   1.253   5.083   2.464  0.2525  0.0196  0.0305
13573W        W44789  19.902   7.019   2.499 -0.1315 -0.3827 -0.2064
13574W        W44790  11.715  18.595   3.497 -0.0795  0.1398 -0.2271
13575W        W44791  14.856   7.791   0.938 -0.2685 -0.0963 -0.0992
13576W        W44792  16.027  10.320   0.584 -0.0495  0.1514 -0.0087
13577W        W44793   2.209  13.658   1.941 -0.2267 -0.1243 -0.3614
13578W        W44794  23.276  14.309   8.640 -0.1769 -0.1739 -0.1553
13579W        W44795   3.554  21.170   8.176  0.1462  0.3171  0.1814
13580W        W44796  22.111  10.331   3.779  0.3443  0.3430  0.0308
13581W        W44797  14.599  14.889   1.769 -0.1753 -0.3082 -0.1597
13582W        W44798  18.643  13.950  10.257  0.0406 -0.3069 -0.0931
13583W        W44799   6.278  18.536   8.284 -0.0719 -0.0640  0.1546
13584W        W44800   7.658  23.848   0.686  0.0183 -0.0891  0.1226
13585W        W44801   4.573   4.491   9.775 -0.1136  0.2732 -0.2946
13586W        W44802  13.368  12.705   9.214  0.1379  0.0618  0.1560
13587W        W44803  17.440  19.034  10.340 -0.4163 -0.3162  0.0497
13588W        W44804  20.085  20.241   0.422 -0.0240  0.2155  0.0621
13589W        W44805  11.829  17.526   1.619  0.1554 -0.3394 -0.4055
13590W        W44806   9.046  17.624   8.996 -0.1543 -0.1037 -0.1305
13591W        W44807  26.717   3.607   1.743  0.0340  0.1489  0.0872
13592W        W44808  18.003  10.875   1.098 -0.1193  0.2986  0.2040
13593W        W44809  26.723   0.031   1.541 -0.0188 -0.1563 -0.2561
13594W        W44810   1.990  14.919   0.054 -0.2783 -0.1188  0.2862
13595W        W44811   1.637  17.933   2.721  0.0606 -0.5010  0.1216
13596W        W44812   5.226   6.981   9.478 -0.1149 -0.0996  0.0250
13597W        W44813   8.013  16.273   7.745  0.1566  0.2006 -0.0326
13598W        W44814   7.697  21.594   8.701  0.0868  0.1116 -0.0047
13599W        W44815  26.361  18.881   1.788 -0.0556 -0.0601  0.0226
13600W        W44816   6.959   1.743   1.008  0.1354  0.2391 -0.4198
13601W        W44817   3.865  17.653   8.787  0.0198 -0.0631 -0.1099
13602W        W44818   8.743  20.446   1.618  0.0807 -0.0857  0.1336
13603W        W44819  14.253   0.925   2.623  0.3245  0.0129  0.0959
13604W        W44820   9.153  19.705   1.014 -0.1356  0.2658 -0.0735
13605W        W44821  11.740   8.274   2.540  0.1824  0.1125  0.0777
13606W        W44822  14.747   3.928   9.867 -0.2081 -0.4776  0.0957
13607W        W44823   1.362   4.793   7.983  0.0588  0.3722  0.1112
13608W        W44824   8.396  19.000   9.792  0.0589  0.1493  0.1541
13609W        W44825  19.019  10.390   1.434  0.1829  0.3330 -0.0885
13610W        W44826  12.112  17.247   2.969 -0.0811  0.0695  0.3150
13611W        W44827  10.057  23.113   0.899 -0.2213 -0.3272  0.0526
13612W        W44828  26.679  24.409   8.282 -0.3352 -0.1468  0.0328
13613W        W44829   6.165  16.833   0.676 -0.0672 -0.2184 -0.2251
13614W        W44830  22.665  24.530   9.718  0.2679  0.2116 -0.0920
13615W        W44831  19.989   2.552  10.422 -0.3985 -0.1018 -0.1018
13616W        W44832  11.424   0.129   1.384  0.0710  0.0288 -0.2714
13617W        W44833  16.691  27.061   2.510  0.1111 -0.2649 -0.4824
13618W        W44834  26.400   5.531   0.554 -0.2291  0.0355 -0.1559
13619W        W44835  13.535   0.362   9.112  0.1317  0.2137 -0.0707
13620W        W44836  12.542  12.489   1.344 -0.2617  0.0110 -0.0158
13621W        W44837  19.320   9.521   8.919 -0.1958 -0.0926  0.0390
13622W        W44838  23.111  10.978   2.015  0.1529  0.1179  0.2493
13623W        W44839   0.789   2.877   2.799  0.0947 -0.6528 -0.2412
13624W        W44840  22.688  25.926   0.890 -0.3341 -0.0531 -0.2344
13625W        W44841   9.905  13.583   0.162 -0.0011  0.0479 -0.0822
13626W        W44842   6.257  12.787   8.098 -0.0225 -0.3066  0.3431
13627W        W44843  24.662  17.030   1.464  0.1444 -0.1321 -0.0434
13628W        W44844   3.427  10.111   0.002 -0.2329 -0.0710 -0.0758
13629W        W44845  17.825  17.418   3.047  0.1280 -0.0385  0.1042
13630W        W44846   6.944  22.359   8.398 -0.1285  0.2802  0.1492
13631W        W44847   1.585  21.890   9.171 -0.1391  0.0203  0.1464
13632W        W44848  15.260  16.287   0.689 -0.3303  0.3063 -0.1171
13633W        W44849   1.363  14.047   1.809  0.1889 -0.1022  0.0195
13634W        W44850  12.026  19.861   8.977  0.1506  0.4534  0.0731
13635W        W44851  19.094  18.569   3.923  0.0428  0.0003  0.4481
13636W        W44852  17.423  12.410   2.259 -0.2768  0.2629 -0.0205
13637W        W44853  10.747  19.151   7.150  0.0659  0.0023 -0.1070
13638W        W44854   6.022  12.509  10.310 -0.2209 -0.1428 -0.2155
13639W        W44855  11.062  26.864   9.335  0.1639 -0.0950 -0.0896
13640W        W44856  13.151   2.620   9.038 -0.1735  0.2633  0.1584
13641W        W44857  13.529  24.315   9.206  0.1362  0.0649 -0.0142
13642W        W44858   3.597  25.067   0.200  0.0586 -0.0364  0.3694
13643W        W44859   9.916   0.306   2.407 -0.2945 -0.1133 -0.1873
13644W        W44860  15.425  16.989   3.472 -0.1037 -0.0411  0.0047
13645W        W44861  14.060  16.192   0.493  0.1230  0.0015  0.2156
13646W        W44862  12.455   6.277   0.517 -0.1151 -0.1194 -0.1166
13647W        W44863   7.832   8.530   2.826 -0.0897 -0.0759 -0.2065
13648W        W44864  15.913   9.700   7.835 -0.0746  0.2551 -0.0224
13649W        W44865   5.133  17.227   2.727 -0.0734 -0.0274 -0.1905
13650W        W44866  27.597  18.717   0.273 -0.4074 -0.0993  0.0351
13651W        W44867   2.907   1.600   2.260 -0.0066  0.4111  0.2183
13652W        W44868  14.210   1.192   3.941  0.2337  0.0429 -0.1603
13653W        W44869   1.964   3.892   1.990  0.1145  0.2046  0.0764
13654W        W44870  24.729   1.340   2.213  0.2314  0.0059  0.4307
13655W        W44871  27.198  12.180  10.238  0.2603  0.2268  0.3913
13656W        W44872   4.215  27.480   2.292  0.1043 -0.1530 -0.0349
13657W        W44873  13.001  27.159   3.503 -0.0373  0.0250  0.2128
13658W        W44874   8.681  22.417   2.933 -0.0890  0.2526 -0.2554
13659W        W44875  19.325  22.728   1.756 -0.0650 -0.0590  0.1942
13660W        W44876  20.509  14.388   1.788  0.3105 -0.1047 -0.3816
13661W        W44877  13.769  13.051   2.984 -0.0086 -0.1179 -0.0184
13662W        W44878  10.519  13.914   1.330  0.0490  0.1690 -0.3074
13663W        W44879  13.505   6.804   0.882 -0.1155 -0.0422 -0.3306
13664W        W44880  16.910  10.953   9.433  0.1341 -0.1552 -0.0311
13665W        W44881  18.909   6.415  10.428 -0.2166  0.1189 -0.0738
13666W        W44882   2.289  20.281   9.376 -0.0266 -0.4293 -0.5839
13667W        W44883  10.263  18.812   7.649  0.0468  0.0654  0.1420
13668W        W44884  21.150  22.329   9.180  0.0391  0.3880 -0.2514
13669W        W44885   8.491  23.490   0.322  0.0421  0.1086 -0.1859
13670W        W44886  19.749   1.270  10.415  0.0506  0.0023 -0.1058
13671W        W44887  12.215  13.089   2.359 -0.2163 -0.3847  0.0331
13672W        W44888   0.597  13.903   3.005 -0.0613 -0.0625 -0.0575
13673W        W44889  27.312  25.052   9.029 -0.0183  0.0171  0.1536
13674W        W44890  12.330  16.661   8.216  0.1952  0.1661  0.3178
13675W        W44891   1.331  27.426   0.548 -0.1253 -0.4630 -0.0841
13676W        W44892  22.425  23.759   2.066 -0.2986 -0.5088 -0.0743
13677W        W44893  14.387   3.643   0.588  0.3964  0.0340  0.2294
13678W        W44894   6.646  26.433   4.220 -0.0269  0.0564 -0.1369
13679W        W44895   9.774   1.407   1.889 -0.0704  0.0986  0.2467
13680W        W44896   3.503  17.899   2.609  0.0295 -0.0911  0.1180
13681W        W44897  11.543  13.460   9.853 -0.2646 -0.1959  0.1862
13682W        W44898  23.289   2.823   0.008 -0.0433 -0.2076 -0.1473
13683W        W44899  14.938   0.436   1.559 -0.0475 -0.1798  0.0556
13684W        W44900  19.116   9.245   2.169  0.0483  0.0951  0.1936
13685W        W44901  18.383   2.812   9.941 -0.2707  0.0640  0.0419
13686W        W44902  20.859  11.602   0.596  0.3474 -0.2132 -0.0582
13687W        W44903  26.033  27.391   8.639 -0.1466 -0.0148 -0.3168
13688W        W44904   8.788   4.956   1.640  0.1657 -0.0543  0.4214
13689W        W44905  16.687  10.563   3.107  0.0896  0.0508 -0.2185
13690W        W44906  11.795  19.897   9.458 -0.3185  0.1147 -0.2868
13691W        W44907   9.549  26.852   3.539 -0.0757 -0.1867 -0.1352
13692W        W44908   8.041   6.475  10.111 -0.1366 -0.0209  0.1015
13693W        W44909  13.590  10.816   0.001 -0.0058  0.3852  0.4737
13694W        W44910  14.010  23.529   9.269 -0.2947 -0.0889 -0.2467
13695W        W44911   3.745  27.396   2.923  0.2399  0.2984  0.1150
13696W        W44912   2.906  27.283   1.455 -0.5285  0.0362 -0.3485
13697W        W44913  24.869   0.897  10.350 -0.1235 -0.1120 -0.4037
13698W        W44914   4.404  12.489   3.338  0.4158 -0.0196  0.2137
13699W        W44915  25.416  16.901   0.255  0.1137 -0.1035  0.2900
13700W        W44916   3.353  24.993  10.312 -0.2490 -0.0472  0.5428
13701W        W44917  14.918  15.351   1.976  0.0726 -0.4263  0.1586
13702W        W44918   3.187   1.268   9.721 -0.0185 -0.1493 -0.0745
13703W        W44919  12.004   8.019   2.924 -0.3016  0.1300 -0.2127
13704W        W44920  13.039  11.908   9.784  0.2191 -0.0327 -0.3224
13705W        W44921  24.706   0.849   1.864  0.4219 -0.0677  0.3295
13706W        W44922   2.674   1.238   1.294  0.0326 -0.0394 -0.2761
13707W        W44923  20.609   0.678   8.637 -0.0211  0.0586 -0.1331
13708W        W44924  13.749  19.443   7.813  0.1807 -0.2295 -0.0642
13709W        W44925  21.077  12.434  10.192 -0.0271 -0.1262  0.0414
13710W        W44926  12.322  15.597  10.413 -0.1253  0.2975  0.3038
13711W        W44927  12.188  22.676   8.404  0.2810 -0.0398  0.4640
13712W        W44928   9.668  20.240   9.102  0.2331 -0.1791 -0.0842
13713W        W44929  15.872  18.840   3.314 -0.0096  0.3475 -0.1519
13714W        W44930   0.113  13.821   0.925  0.2209 -0.2619  0.1021
13715W        W44931  12.922   4.903   0.102 -0.1507 -0.1048  0.0079
13716W        W44932  27.597  13.500   9.199  0.1126 -0.4013  0.2014
13717W        W44933  19.058   3.467   9.795  0.0320 -0.0462 -0.1544
13718W        W44934  20.868  19.218   1.513 -0.0046  0.1548 -0.0039
13719W        W44935  15.788  18.281  10.382  0.0106 -0.0164 -0.3430
13720W        W44936  19.431  10.068   9.048  0.1668  0.0586 -0.0302
13721W        W44937   8.823  14.618   2.261 -0.1203 -0.0627  0.0072
13722W        W44938   8.325  13.115   0.423 -0.1088 -0.1059  0.2282
13723W        W44939  13.460   8.142   0.200  0.3728 -0.3680 -0.0103
13724W        W44940  23.542   3.972   9.212 -0.1679 -0.0487 -0.0473
13725W        W44941  11.119  12.712   8.692 -0.2923 -0.1610 -0.0023
13726W        W44942   1.254   9.396   2.912 -0.1249  0.0731 -0.2717
13727W        W44943  19.712   4.620   9.946  0.1241 -0.3590  0.1312
13728W        W44944  26.456  23.471   1.930  0.2535 -0.0521  0.3971
13729W        W44945   7.872  10.280   8.529 -0.3496 -0.1840 -0.0007
13730W        W44946  16.075  15.386   9.098 -0.2460 -0.1553 -0.3971
13731W        W44947   1.337   2.095   0.158 -0.1417  0.1690  0.1217
13732W        W44948  25.596  25.711   9.222 -0.0557 -0.1118 -0.1430
13733W        W44949  15.396   2.950  10.439 -0.2759  0.0160 -0.0852
13734W        W44950  23.564  14.755   2.622 -0.2183 -0.0183 -0.3167
13735W        W44951   3.716   2.229   7.673  0.0467  0.1402 -0.1407
13736W        W44952  21.011   5.353   2.175  0.1829  0.1337 -0.0404
13737W        W44953  19.203  22.654   0.601 -0.0862 -0.1273  0.0806
13738W        W44954  11.298  16.390   3.167 -0.0224  0.1052 -0.0978
13739W        W44955  18.899   3.172   0.779  0.1258  0.0844 -0.1245
13740W        W44956   7.136   9.181   3.145  0.1768 -0.1831  0.2855
13741W        W44957   8.236   0.971   8.908 -0.0447 -0.3527 -0.0515
13742W        W44958  25.030  15.218   1.403  0.0173 -0.0954  0.1187
13743W        W44959   2.815  14.967   1.172 -0.2637 -0.0303 -0.0703
13744W        W44960  21.408  17.787   1.657  0.0444 -0.0587 -0.1491
13745W        W44961  19.548  12.188   2.455  0.0045 -0.0664  0.0945
13746W        W44962  17.575   8.179   0.202 -0.1308  0.0963 -0.0197
13747W        W44963  17.186  15.003   9.248 -0.2148  0.2430 -0.1010
13748W        W44964  21.281   5.999   8.756 -0.3593 -0.0496 -0.1745
13749W        W44965   6.215  11.766   0.165 -0.1484 -0.0934  0.1036
13750W        W44966  18.826   8.132   9.271  0.2075 -0.3872 -0.1292
13751W        W44967  20.547  13.567   8.103 -0.2124 -0.1774 -0.2090
13752W        W44968  25.761  11.876   0.532 -0.0742 -0.2379  0.1313
13753W        W44969  14.864  19.811   0.880  0.1813 -0.2455 -0.1525
13754W        W44970  17.888  25.847   9.248  0.1412  0.1076 -0.0599
13755W        W44971  23.586  26.047   8.266 -0.0451 -0.1523 -0.1259
13756W        W44972   4.136  14.132   8.080  0.0994  0.2587  0.1087
13757W        W44973  13.652  17.479   8.755  0.2238 -0.1308  0.0939
13758W        W44974   3.277  13.525   9.030  0.1845  0.1101 -0.0226
13759W        W44975  22.208  24.775   0.141 -0.1718 -0.0608  0.0261
13760W        W44976   9.511   2.697   9.156 -0.2866  0.6381 -0.2412
13761W        W44977   6.688  15.679   8.411 -0.2111  0.1652 -0.0561
13762W        W44978  27.481  23.016   1.529  0.1220 -0.0283  0.1701
13763W        W44979  19.875   9.711   1.383  0.1810  0.2125  0.2474
13764W        W44980  16.231  10.959   8.644 -0.2617 -0.0981  0.0853
13765W        W44981   9.670   5.525  10.081 -0.0140  0.0593 -0.2703
13766W        W44982  11.467  10.294   1.102 -0.1467  0.0005  0.2277
13767W        W44983   3.194   1.827   1.840  0.2268  0.1050  0.2156
13768W        W44984  13.242  16.081   9.670  0.1622  0.2360 -0.3440
13769W        W44985   1.176   2.705   9.650 -0.1132 -0.2262 -0.3257
13770W        W44986   1.574   4.840  10.409  0.1700  0.1590 -0.1778
13771W        W44987  18.907   1.704   8.084 -0.1451  0.2075  0.5319
13772W        W44988  17.794   5.367   1.332  0.3736  0.1627 -0.1603
13773W        W44989  14.239   8.940   7.792 -0.1652  0.1468  0.1172
13774W        W44990  14.846  15.159   3.289 -0.0564 -0.2816  0.0594
13775W        W44991   6.695  10.863   9.844 -0.3979 -0.0400  0.0477
13776W        W44992  18.927  19.721  10.235  0.2385 -0.0150  0.0311
13777W        W44993   3.928   8.397   0.835  0.2634  0.2674  0.0197
13778W        W44994   8.484  20.909   9.715 -0.1407 -0.1454  0.1175
13779W        W44995   6.144  12.032  10.298 -0.2679 -0.0054 -0.1894
13780W        W44996   8.888  22.313   0.759 -0.2234 -0.0229  0.1196
13781W        W44997   1.329  18.202   1.672  0.0757  0.1345 -0.0876
13782W        W44998   0.590  24.114   9.582 -0.0288  0.0439  0.3925
13783W        W44999  16.562  24.654   3.933  0.2040 -0.0014  0.1817
13784W        W45000  20.189  20.343   9.633 -0.1268  0.1545 -0.1895
13785W        W45001   6.283   8.498   1.599  0.3188  0.2340  0.2020
13786W        W45002  27.316   8.915   9.928 -0.0614  0.3710 -0.0388
13787W        W45003   2.664  14.531   2.136 -0.2232  0.0665 -0.1215
13788W        W45004   1.694  23.528   0.730 -0.0867 -0.1810 -0.0684
13789W        W45005  16.031  12.241   7.085 -0.2382 -0.1460 -0.0580
13790W        W45006   6.586   4.101   8.013 -0.0112 -0.3365  0.0748
13791W        W45007   2.203  16.438  10.237  0.2524  0.2260  0.1277
13792W        W45008   4.292  21.442   0.531 -0.0635  0.0512 -0.1278
13793W        W45009  19.633  26.783   3.528 -0.0792 -0.0528 -0.0519
13794W        W45010  26.842  24.614   0.111 -0.1623 -0.0799 -0.1938
13795W        W45011  14.226  20.394   8.296  0.0746  0.2362  0.1160
13796W        W45012   2.982   7.783   8.417  0.2175  0.2381 -0.2333
13797W        W45013  25.156   5.092   9.660  0.1407 -0.1465 -0.2460
13798W        W45014  14.134  16.384   9.419 -0.1170  0.0309 -0.0126
13799W        W45015   0.681  24.162   9.061  0.0039 -0.0089 -0.2174
13800W        W45016  22.978  24.289  10.331 -0.1877 -0.0704 -0.0982
13801W        W45017   9.475  20.136   2.755  0.1597  0.1105 -0.1147
13802W        W45018   6.165   0.519   9.528  0.0387 -0.0594  0.3342
13803W        W45019   9.370  26.735   0.190 -0.1759  0.0899  0.0631
13804W        W45020  11.578  22.666   2.229  0.1606  0.1407  0.0834
13805W        W45021   2.996  15.280   9.772  0.2436  0.0019 -0.1489
13806W        W45022   0.014   5.935   9.688 -0.3507 -0.1672  0.0732
13807W        W45023  17.514   0.286   0.460 -0.2748  0.1746 -0.1515
13808W        W45024   9.564  27.570   0.980 -0.3013 -0.0046 -0.1003
13809W        W45025  11.058  20.940   9.749  0.0717  0.1627 -0.0401
13810W        W45026   3.037  19.056   0.340  0.1937  0.4074 -0.2089
13811W        W45027  25.119  11.973  10.355  0.0055  0.0481 -0.1027
13812W        W45028   3.547   9.740   0.373 -0.1562  0.1559  0.1148
13813W        W45029   9.207   6.254   7.585 -0.0282 -0.2158  0.2477
13814W        W45030   9.345  15.602   9.310 -0.0574 -0.1511 -0.5048
13815W        W45031  16.399   3.460   1.702  0.1028  0.3550  0.1012
13816W        W45032  19.838   4.894   9.372  0.2098 -0.0270  0.0048
13817W        W45033   5.324  24.433   3.120 -0.3401  0.4601 -0.1924
13818W        W45034  20.432  27.434   2.636 -0.0612  0.2384  0.0842
13819W        W45035  12.625  22.066   0.219 -0.2297 -0.3289 -0.2074
13820W        W45036  23.851  19.466   1.751  0.1735 -0.2355 -0.0467
13821W        W45037  20.196  17.286   7.453 -0.1924  0.1338  0.1167
13822W        W45038   5.369  14.122   7.432 -0.2261  0.0927  0.2965
13823W        W45039  18.127   5.280   0.957  0.0706  0.0065  0.0135
13824W        W45040  21.204   3.370   3.639 -0.1052 -0.3948  0.2196
13825W        W45041  24.663  15.059   2.175  0.2842  0.1346  0.1388
13826W        W45042  24.398  23.171   2.792  0.1522  0.0757  0.2513
13827W        W45043   0.355   5.275   9.342 -0.0903  0.1188 -0.0122
13828W        W45044   7.464  27.121   9.943 -0.0167 -0.0007  0.2483
13829W        W45045  14.399   8.569   8.869  0.0335 -0.0426 -0.1490
13830W        W45046  24.442   6.392   1.118 -0.4496 -0.2620 -0.2164
13831W        W45047  21.385  25.576   1.278  0.0984 -0.1781  0.0861
13832W        W45048   2.190   2.171  10.139 -0.1604  0.0781  0.0061
13833W        W45049   6.733  24.604   9.647 -0.0085 -0.2476 -0.0159
13834W        W45050  10.662  13.571   8.915 -0.0746  0.0305  0.1904
13835W        W45051  17.556   9.189   7.276  0.2092  0.0686 -0.0482
13836W        W45052   6.513  17.930   9.615  0.0821 -0.1399  0.0509
13837W        W45053  26.739  20.438   8.190  0.0218 -0.0789  0.1552
13838W        W45054  12.839   6.464   8.123 -0.0881  0.0968  0.1189
13839W        W45055   2.825  11.696   3.066 -0.1249  0.1018 -0.0730
13840W        W45056  15.039  23.682   3.609 -0.1341  0.1851  0.0439
13841W        W45057  13.774  27.613   8.204  0.2911 -0.1054 -0.0882
13842W        W45058  23.844  15.062   3.207 -0.1615  0.2038 -0.0213
13843W        W45059   5.090   6.609   0.224 -0.2015  0.2771  0.1767
13844W        W45060   0.136   4.287   9.381  0.1243 -0.4485  0.0350
13845W        W45061  20.304  18.913   3.929 -0.1570  0.1906  0.2279
13846W        W45062  25.479  15.982   2.907  0.1272 -0.3420 -0.0010
13847W        W45063  10.759  11.283   0.403  0.0465  0.0684 -0.1005
13848W        W45064  23.739   0.292  10.002  0.0282 -0.2611 -0.0759
13849W        W45065  12.953  16.235   3.403  0.0419  0.1112  0.0359
13850W        W45066  11.473  24.965   6.945  0.0132 -0.0238  0.0386
13851W        W45067   7.308  24.031   1.770  0.1641 -0.2037 -0.0391
13852W        W45068  15.412   1.765   0.797  0.1977  0.2187 -0.1776
13853W        W45069  16.505   6.659   1.214 -0.0674 -0.5303  0.1870
13854W        W45070   2.404  17.914   9.900 -0.0185  0.0229 -0.0467
13855W        W45071  17.871  13.928   7.135  0.4311 -0.0559 -0.0639
13856W        W45072   9.408  18.433   7.528 -0.3217 -0.2364  0.2298
13857W        W45073  13.463  20.907   8.354 -0.0592 -0.4905  0.4596
13858W        W45074  21.380   4.782  10.366 -0.2201 -0.4209 -0.0863
13859W        W45075  25.977  16.259   1.432 -0.2828  0.0541 -0.1236
13860W        W45076  21.990  26.932   2.979 -0.2634  0.1031 -0.1825
13861W        W45077   9.848  18.375   9.835 -0.1097 -0.5956  0.1047
13862W        W45078  14.237  21.107   1.314 -0.0415  0.2878 -0.0786
13863W        W45079   0.445  12.124   9.538 -0.0509 -0.4133  0.0178
13864W        W45080  17.197  27.517   0.220  0.0079 -0.1336  0.0531
13865W        W45081  25.773   7.149   3.129  0.0876 -0.0305  0.0982
13866W        W45082  21.838  14.152   9.207  0.0471 -0.1870  0.0473
13867W        W45083  12.541  21.886   7.582  0.3727  0.1923  0.0190
13868W        W45084   0.709  24.576   0.592  0.1490  0.1065  0.2631
13869W        W45085   0.637  26.723   1.241 -0.0644  0.4324  0.2035
13870W        W45086  21.750  14.632   2.340 -0.2404 -0.1038  0.2878
13871W        W45087   9.195  19.427   8.551 -0.5831 -0.4902  0.0481
13872W        W45088  17.377   7.394   1.704 -0.3044  0.0754 -0.0755
13873W        W45089   7.980  18.081   8.178  0.2463 -0.1684  0.3903
13874W        W45090  18.665  15.196   2.202 -0.1967 -0.3018  0.2212
13875W        W45091  19.752  21.811   9.867 -0.1637  0.1751 -0.0523
13876W        W45092   7.282   3.093   7.979  0.4420  0.0094 -0.1777
13877W        W45093  10.761   7.054   0.487 -0.3459  0.0060  0.0880
13878W        W45094   2.452   2.955   7.939  0.3475 -0.0871 -0.0215
13879W        W45095  16.500  22.394   9.181  0.0257 -0.0578  0.1253
13880W        W45096  14.519  10.636   9.529 -0.0365 -0.0791  0.1292
13881W        W45097  19.258  17.536   9.227 -0.0980 -0.3063 -0.1346
13882W        W45098  12.399  16.462   2.079 -0.0187 -0.2661 -0.0030
13883W        W45099  22.742  22.416   7.811 -0.0414 -0.0618  0.0060
13884W        W45100   4.790  27.477   9.329  0.0728  0.3165  0.0194
13885W        W45101   2.612  23.870   3.443 -0.0921  0.3253  0.0756
13886W        W45102  12.543  22.962   8.148 -0.1432 -0.2883 -0.0603
13887W        W45103   7.547   5.819  10.159  0.1576 -0.1179 -0.1611
13888W        W45104   9.030   2.559   2.400  0.0866  0.0600 -0.0761
13889W        W45105   6.559  17.977   9.032  0.2622  0.1377  0.0523
13890W        W45106  20.180  20.350  10.152  0.1841 -0.1092 -0.2550
13891W        W45107  23.770  13.415   1.804 -0.1576 -0.1811  0.2639
13892W        W45108  22.278  16.025   8.615 -0.4282  0.1467  0.0101
13893W        W45109  10.777   6.614   8.588 -0.0586 -0.0185 -0.0940
13894W        W45110   5.360  24.172  10.034  0.1795  0.1196  0.0549
13895W        W45111   0.931   8.233   0.862  0.2788 -0.1037 -0.0443
13896W        W45112   8.416  12.619   1.368 -0.0390 -0.3904 -0.3308
13897W        W45113  10.298  16.792   8.517  0.0796 -0.0627  0.3112
13898W        W45114  19.852   3.582   7.714 -0.0240  0.0153 -0.1422
13899W        W45115  10.098  26.973   2.425  0.0254 -0.0569 -0.4227
13900W        W45116  18.166   6.945  10.163 -0.0104 -0.0259  0.1099
13901W        W45117  15.543  18.916   2.763 -0.0588 -0.0097 -0.1249
13902W        W45118  15.508   8.442   1.980 -0.3110  0.3108 -0.2218
13903W        W45119   4.395  20.745   1.037 -0.3159  0.0564  0.0630
13904W        W45120  24.486   4.753   2.543  0.1163  0.1292  0.0790
13905W        W45121  10.428  22.562   3.697 -0.0694  0.1164  0.0643
13906W        W45122  13.112  22.257   8.905 -0.1061  0.2102  0.2767
13907W        W45123   2.415  21.259   1.792  0.1566  0.1409 -0.0821
13908W        W45124  18.013  17.052   2.354 -0.1152 -0.2037 -0.2349
13909W        W45125   1.853   1.251   2.781  0.2457  0.1551  0.1257
13910W        W45126   8.565  15.609   8.510  0.2491  0.0543  0.2807
13911W        W45127  10.018  19.045   8.550 -0.0008  0.1403  0.1769
13912W        W45128  18.695   6.182   7.456 -0.4393 -0.3404 -0.1105
13913W        W45129  25.509   0.657   9.218  0.1823 -0.1851  0.0702
13914W        W45130  13.921  25.737  10.277 -0.1669  0.0542 -0.1872
13915W        W45131  10.056  14.195   0.148  0.1479  0.1572  0.0915
13916W        W45132  13.585  10.337   9.926  0.1297 -0.1684 -0.4147
13917W        W45133   8.728   0.741   3.387 -0.1405  0.0786  0.2007
13918W        W45134  25.704  17.031   3.635 -0.0001  0.1968  0.1100
13919W        W45135  21.452   7.159   2.740  0.0598  0.0270  0.0546
13920W        W45136   8.271   2.271   9.954  0.2414 -0.1787 -0.2035
13921W        W45137   3.491  26.750   7.904 -0.3952 -0.0534 -0.4533
13922W        W45138   3.479   0.704  10.396  0.0784 -0.3254 -0.3110
13923W        W45139  18.026   2.383   1.255  0.1096 -0.5003  0.0329
13924W        W45140   6.974  18.400   8.991 -0.2773 -0.0310  0.2377
13925W        W45141   3.405  14.773   3.159  0.1724  0.0310  0.1513
13926W        W45142  20.802  19.394   7.830 -0.0383 -0.2382 -0.3363
13927W        W45143  11.434   5.484   1.903 -0.0505  0.0529 -0.1286
13928W        W45144  10.843   3.622   1.600 -0.3606 -0.0953 -0.0829
13929W        W45145   8.164  21.713   8.578  0.0948 -0.0825 -0.1194
13930W        W45146   9.376   1.545   8.348 -0.1075 -0.0131 -0.4536
13931W        W45147   3.750  13.674   8.357 -0.0298  0.2079 -0.2394
13932W        W45148   0.122  26.497   1.883 -0.3562 -0.1419 -0.0619
13933W        W45149  17.971   3.798   1.550 -0.1260  0.3824 -0.0812
13934W        W45150  21.783   8.274   8.211 -0.1206 -0.1377 -0.4013
13935W        W45151   1.778  10.315   0.012 -0.0752  0.1313  0.0212
13936W        W45152  20.616  12.054   7.077 -0.2586 -0.0917  0.1226
13937W        W45153  22.383  25.369   9.129 -0.1075  0.1098 -0.2036
13938W        W45154  21.044   7.510   8.320 -0.1349  0.1954 -0.3085
13939W        W45155   4.893  11.829   8.046 -0.2636  0.0948  0.3905
13940W        W45156  12.184   3.378   8.098  0.1218  0.1186  0.1486
13941W        W45157  23.917  27.203   8.785  0.2981 -0.2440  0.0695
13942W        W45158   6.908  11.354   8.772  0.3839 -0.0665 -0.2553
13943W        W45159  24.100   4.914   1.103  0.0983  0.0125  0.1543
13944W        W45160   1.793   0.307   2.511 -0.2043  0.0371 -0.0479
13945W        W45161   8.911   6.223   8.573  0.0137 -0.1249 -0.1372
13946W        W45162   4.023  19.396   2.588  0.0243  0.2618 -0.1548
13947W        W45163  26.913  26.022   2.287 -0.0972  0.1128  0.0389
13948W        W45164  14.482  21.564   1.829 -0.1076 -0.0346  0.0898
13949W        W45165  12.721  10.777   0.085 -0.2209 -0.2138  0.0038
13950W        W45166  14.317  14.950   0.129 -0.2858  0.0463 -0.0932
13951W        W45167   4.728   6.931   0.521 -0.2588 -0.1153 -0.1194
13952W        W45168  18.911  19.887   1.022 -0.2100 -0.1011 -0.1346
13953W        W45169  20.100   2.468   2.307 -0.1391  0.2815  0.0176
13954W        W45170   4.555  26.466   1.320  0.2734  0.0152 -0.0159
13955W        W45171   4.027  17.160  10.010  0.1678  0.0506 -0.0612
13956W        W45172  10.964   3.937   9.356  0.1387  0.1360 -0.3524
13957W        W45173  21.304  12.614   0.110  0.0970 -0.1063  0.0742
13958W        W45174   4.307  14.731  10.473  0.1044 -0.0121 -0.0851
13959W        W45175   7.025  24.447   0.167  0.0294 -0.1997  0.1080
13960W        W45176  12.996  13.744   3.821  0.0388  0.0572 -0.0049
13961W        W45177  16.808  20.110   1.607 -0.1739 -0.1719 -0.0033
13962W        W45178   1.888   5.644   2.290  0.1761 -0.0596  0.0770
13963W        W45179  15.836  20.885   2.127 -0.0451  0.1401 -0.0233
13964W        W45180   2.224  19.411   2.346  0.1071  0.1143 -0.0655
13965W        W45181  18.035  18.050   2.644 -0.2746  0.0316  0.1885
13966W        W45182  24.510  11.655   2.964 -0.0258  0.2825  0.0760
13967W        W45183   6.569  13.031   0.753  0.1036  0.2200  0.2155
13968W        W45184  10.536   8.481   0.663  0.2080 -0.1483  0.3519
13969W        W45185  10.115  25.424   2.394 -0.0891  0.1302 -0.0972
13970W        W45186  14.601   7.635   0.044  0.1408  0.0341  0.0684
13971W        W45187   3.271  19.490   2.216 -0.1288 -0.0478 -0.0449
13972W        W45188   5.887  12.147   9.429  0.2524 -0.4411  0.1309
13973W        W45189   3.043  18.071   2.900 -0.1733 -0.2467  0.1981
13974W        W45190  22.085   0.164  10.352  0.0472 -0.2067 -0.2015
13975W        W45191   0.833  17.259   9.259  0.1278 -0.1244  0.0588
13976W        W45192  11.555  18.784   9.817 -0.0172 -0.1689 -0.1081
13977W        W45193   4.025  26.931   0.160 -0.2425 -0.2672  0.0632
13978W        W45194  16.706  12.246   0.012 -0.2530 -0.4370  0.0379
13979W        W45195  15.014  21.824  10.481 -0.0848  0.0539  0.0251
13980W        W45196   9.275  21.231   8.533  0.1377  0.0902 -0.0014
13981W        W45197  26.985   5.432   1.660 -0.0720  0.1226  0.3728
13982W        W45198  25.598   5.828   9.012 -0.0790  0.2909 -0.1945
13983W        W45199   9.866  24.290   7.715 -0.1098  0.3187  0.0691
13984W        W45200  27.414   1.295   0.318 -0.3035 -0.0853 -0.0546
13985W        W45201  11.119   0.322   0.921  0.2423 -0.1318  0.3287
13986W        W45202   9.569  11.731  10.373 -0.1289  0.2350 -0.2762
13987W        W45203   1.817   2.617   2.220 -0.1344  0.1911 -0.0809
13988W        W45204  16.252  14.139   9.319 -0.0682  0.0743  0.0848
13989W        W45205  21.043   1.015   2.005  0.0313 -0.0308  0.3412
13990W        W45206   4.197  12.619   0.650 -0.2570  0.0271  0.1510
13991W        W45207   4.242  12.894   1.410  0.1257 -0.2904 -0.1260
13992W        W45208   7.919   1.299   0.540  0.2816  0.0205  0.2435
13993W        W45209   3.536   7.116   0.908  0.0451  0.0291 -0.2055
13994W        W45210  15.213   6.471   8.579  0.2102  0.0016  0.2173
13995W        W45211   9.107   9.217   9.510 -0.2032 -0.2001  0.0266
13996W        W45212  14.720   6.075   1.898 -0.2160 -0.1072 -0.0420
13997W        W45213   2.934  10.055   0.066 -0.0994  0.0998 -0.2670
13998W        W45214  10.531   0.743   0.361  0.0728  0.2310 -0.0878
13999W        W45215  14.200  12.974   2.737  0.0150  0.1982  0.0810
14000W        W45216  20.201  11.107   9.672 -0.1822 -0.3612  0.2847
14001W        W45217   9.423  11.223   2.112 -0.1160 -0.0843  0.1461
14002W        W45218  26.835  11.641  10.165  0.0613  0.0761  0.1747
14003W        W45219   2.804  16.143   8.928  0.1072 -0.2284  0.2871
14004W        W45220   5.800   4.902  10.086  0.0269  0.0373 -0.3013
14005W        W45221  25.019   3.134   9.692 -0.2090 -0.0700  0.1781
14006W        W45222   8.884   5.900   0.286  0.1032 -0.0372 -0.0145
14007W        W45223   1.410   0.894   8.226 -0.0734  0.1627  0.3381
14008W        W45224  15.806  16.057   9.981  0.0473  0.0510 -0.1103
14009W        W45225  12.483  27.227   4.130  0.1493 -0.3773  0.1843
14010W        W45226  18.064   3.357   2.982  0.0484  0.0249  0.0470
14011W        W45227   4.672  26.275   0.820  0.3033 -0.1065  0.1008
14012W        W45228  23.282  15.264   1.891  0.0915 -0.1401  0.0071
14013W        W45229  16.004  16.180  10.411 -0.1640 -0.0111 -0.2836
14014W        W45230  22.055  14.110   3.180 -0.1908  0.0703  0.0470
14015W        W45231  12.804  27.549   9.351 -0.3107  0.0336  0.4107
14016W        W45232   4.729  26.486   3.433 -0.0291 -0.2181  0.1747
14017W        W45233   8.006   5.011   0.845 -0.3552  0.3444 -0.0382
14018W        W45234  18.987  19.047   0.719  0.0998  0.1437  0.0096
14019W        W45235  12.532  16.126   0.217  0.3726 -0.1802  0.1145
14020W        W45236  10.332  25.708   1.083 -0.2874  0.0178 -0.1355
14021W        W45237  25.473   9.745   7.586 -0.2761  0.2165  0.0918
14022W        W45238   6.232  21.714   2.633 -0.3205 -0.1600  0.2098
14023W        W45239   4.160  27.017   0.687  0.1098 -0.0142 -0.0762
14024W        W45240  15.988   3.808   7.673 -0.0818 -0.4132 -0.1069
14025W        W45241  27.280  26.001   0.621  0.3721  0.1255 -0.1614
14026W        W45242  14.096  26.485   3.320 -0.1018  0.0580 -0.0313
14027W        W45243  20.527  24.231   0.425 -0.0049 -0.0723 -0.0459
14028W        W45244   5.924  19.233   1.660  0.0840  0.2119  0.2856
14029W        W45245  19.634  13.030   1.571 -0.1799 -0.1460 -0.2369
14030W        W45246  20.646   4.549   9.870 -0.1211 -0.0993 -0.1457
14031W        W45247   0.518   9.713   9.832  0.0402  0.2336  0.1302
14032W        W45248   9.397  13.470   0.150 -0.1155  0.1725  0.2951
14033W        W45249  22.222  19.036   1.562 -0.1769 -0.2131 -0.0154
14034W        W45250  11.534   6.509   9.992 -0.2998  0.2942  0.0966
14035W        W45251  12.718  19.569   9.699  0.1741 -0.1022 -0.0355
14036W        W45252  25.828   2.570   9.389 -0.1291 -0.0032 -0.0506
14037W        W45253  12.904  19.189   2.271  0.0487 -0.2688 -0.0929
14038W        W45254   3.610  20.998  10.320 -0.0069  0.1505 -0.0100
14039W        W45255  19.467   1.193   9.885 -0.1366 -0.1648  0.0508
14040W        W45256   0.283  17.465   8.627  0.0916 -0.0482  0.4323
14041W        W45257  22.040  19.733   2.893  0.1324 -0.1492 -0.0571
14042W        W45258  18.910  22.936   1.521  0.0142 -0.3158  0.1032
14043W        W45259  11.111  27.294   8.447 -0.2023 -0.1364 -0.0441
14044W        W45260   2.979  27.093   9.931  0.0730  0.1488  0.3530
14045W        W45261   5.233   0.395   3.436 -0.2886  0.1283 -0.2616
14046W        W45262  25.254   3.131  10.311  0.1489  0.0264  0.0209
14047W        W45263  10.942  24.170   2.965  0.2179 -0.1742  0.0426
14048W        W45264  25.434   5.698  10.364  0.0431 -0.0351 -0.2210
14049W        W45265   9.009  25.542  10.463 -0.1219 -0.1512  0.0306
14050W        W45266   7.918   2.183   1.410 -0.0702  0.1331  0.1638
14051W        W45267  24.404  14.186   2.658 -0.0996 -0.2974 -0.1706
14052W        W45268   0.485  23.182   0.231  0.1165  0.2194 -0.2008
14053W        W45269   2.839   6.517   1.881  0.2311 -0.0645 -0.2382
14054W        W45270   1.861  13.496   9.012 -0.3540 -0.4716  0.3123
14055W        W45271  26.682   0.867   2.308  0.0962  0.2541  0.0959
14056W        W45272  15.773   0.579   8.281 -0.1320  0.0045  0.2508
14057W        W45273  16.326   3.354   3.296 -0.2204 -0.1859  0.3350
14058W        W45274  10.699   4.892   8.922 -0.2423 -0.1147 -0.1291
14059W        W45275   8.129  18.324  10.315  0.1428 -0.1215  0.1898
14060W        W45276  21.977   2.814   8.131  0.2088  0.3837  0.0377
14061W        W45277  16.516  21.985   3.468  0.0396  0.1539 -0.2156
14062W        W45278  18.055   1.142   1.433  0.3127  0.1704 -0.2327
14063W        W45279  17.026   4.772   2.917  0.0946 -0.1353  0.0690
14064W        W45280  26.437  16.003   1.240 -0.1249 -0.3447  0.1527
14065W        W45281   5.638  27.392   2.370  0.0505 -0.1095  0.1874
14066W        W45282  23.341   2.088   1.954  0.0544  0.0063 -0.0379
14067W        W45283  16.251  26.488   8.439 -0.0160 -0.0018  0.2533
14068W        W45284  21.023  12.774   9.780  0.0569 -0.0563 -0.0583
14069W        W45285  22.152  21.775   0.033 -0.2537  0.0905 -0.2935
14070W        W45286  18.667  10.460   0.517 -0.2769  0.3158  0.0870
14071W        W45287   5.986  13.541   0.226 -0.0791  0.4436  0.1055
14072W        W45288   8.786  14.636   7.564 -0.3681 -0.2714  0.2946
14073W        W45289   6.074   3.738   2.581 -0.0340  0.0689 -0.3440
14074W        W45290  19.557  14.027   8.780 -0.0157  0.2535 -0.4217
14075W        W45291  18.574  18.191  10.495  0.2228 -0.1554 -0.2626
14076W        W45292  17.082   9.311   1.404  0.3027 -0.1330 -0.2057
14077W        W45293   3.284   7.400   2.744 -0.2022  0.0527 -0.0705
14078W        W45294  11.190  27.520   3.417  0.1403  0.0133 -0.2296
14079W        W45295  12.144  14.276   8.987 -0.0789 -0.0354 -0.2410
14080W        W45296  18.997  21.696   1.043  0.2129 -0.2305 -0.3297
14081W        W45297  27.544  23.892   0.445 -0.0537 -0.1635  0.0251
14082W        W45298  27.523  14.493   2.439  0.1493  0.1862  0.1398
14083W        W45299  11.549  20.931   9.489 -0.0886  0.3787 -0.1701
14084W        W45300  25.148   6.684   3.651 -0.2118  0.1823  0.0225
14085W        W45301   6.111  15.061   2.995  0.1236 -0.0138 -0.0516
14086W        W45302  17.018  22.623  10.140  0.1373  0.2152 -0.0476
14087W        W45303  23.590   2.046   9.948 -0.1165 -0.0210 -0.3465
14088W        W45304   8.340  20.801   8.448  0.0373  0.0910 -0.0373
14089W        W45305   8.760  16.653   3.228  0.0861  0.0426  0.2754
14090W        W45306  21.318   8.853   0.775  0.5312  0.0585 -0.1166
14091W        W45307  14.507  11.494   1.442 -0.0841 -0.3342  0.1289
14092W        W45308  16.988  24.284   4.021  0.2164  0.1647 -0.0376
14093W        W45309  18.805  16.296   1.261  0.0086 -0.3587 -0.2900
14094W        W45310  10.348   3.035   1.078 -0.0470 -0.0875  0.0483
14095W        W45311   4.084   8.083   8.478  0.2070  0.1056  0.0564
14096W        W45312  17.382  27.352   2.004  0.3497 -0.1378  0.5513
14097W        W45313   7.006  25.227   3.568 -0.1183 -0.3091  0.1677
14098W        W45314  20.583  21.029   1.681  0.3417  0.0123 -0.0486
14099W        W45315  24.407  23.008   8.195 -0.4629 -0.1072  0.0018
14100W        W45316  12.760  17.354   8.543  0.1961 -0.2589 -0.0052
14101W        W45317  11.774  24.390   9.845  0.3269 -0.2126  0.2245
14102W        W45318   0.022   8.710   0.474 -0.0261  0.0160 -0.0142
14103W        W45319  17.369  27.291   2.484 -0.0084 -0.0040 -0.2125
14104W        W45320  13.150   9.765   7.693 -0.4478 -0.0175 -0.0079
14105W        W45321  21.276   4.900   1.452  0.1860 -0.1737 -0.1378
14106W        W45322   7.457   6.256   1.278 -0.4745  0.0554 -0.4483
14107W        W45323  12.620   8.471   9.809 -0.0916  0.1618 -0.2070
14108W        W45324  27.107  11.290   3.503 -0.1587  0.1272  0.1535
14109W        W45325  27.222  27.611   2.519 -0.0228  0.3712 -0.0698
14110W        W45326  22.319  18.384   2.690  0.1898 -0.0583 -0.2876
14111W        W45327   6.818  13.585   1.158  0.2218 -0.2778  0.2931
14112W        W45328  23.964  20.830   2.924 -0.1843  0.0806 -0.0751
14113W        W45329   3.637   9.543  10.427  0.1498 -0.3769  0.1570
14114W        W45330  25.376   6.383   0.743 -0.1961 -0.4122  0.0230
14115W        W45331  21.589  10.670   1.236 -0.1639 -0.1319  0.2111
14116W        W45332  16.394   6.469   9.730 -0.0711  0.1009 -0.0504
14117W        W45333  19.484   5.843   7.968  0.0256  0.0136 -0.0069
14118W        W45334  26.744  13.958   1.852 -0.1939 -0.0330  0.0303
14119W        W45335  16.916  23.601   9.477 -0.0551 -0.1567 -0.0910
14120W        W45336  10.983   9.541   1.134  0.1116 -0.0103 -0.1823
14121W        W45337  22.726  18.144   2.846  0.0472  0.4094 -0.3199
14122W        W45338   7.253   4.595   2.533  0.1673 -0.0787  0.1523
14123W        W45339   6.454  24.702   8.203  0.1879  0.1935  0.2758
14124W        W45340   0.041   3.462   3.520 -0.0824  0.0049 -0.0237
14125W        W45341  26.197  14.333  10.159  0.1818 -0.2578  0.0555
14126W        W45342   5.008   1.446   9.737 -0.0240 -0.3744 -0.0794
14127W        W45343   8.961  11.802   0.371  0.1759 -0.0722 -0.0152
14128W        W45344  16.644  17.047   8.493  0.3127  0.0951  0.2629
14129W        W45345  13.200  19.955   8.551  0.1150 -0.0010 -0.1490
14130W        W45346  13.514  15.223   1.356  0.4848  0.0118 -0.0145
14131W        W45347  16.956  21.660   1.037 -0.1334  0.0577  0.3168
14132W        W45348  10.598  16.771   9.531 -0.5229 -0.0668 -0.0137
14133W        W45349   1.368   4.510   8.862  0.3223  0.0421 -0.3186
14134W        W45350   7.356  18.559   9.273 -0.1881  0.2117 -0.1566
14135W        W45351  16.631  22.468   2.535 -0.1893 -0.3437 -0.2460
14136W        W45352   4.346  17.241   9.449  0.0768 -0.1511 -0.1146
14137W        W45353   0.136   0.137   2.590 -0.1922 -0.0134  0.3053
14138W        W45354  21.569   1.093   3.935  0.1584  0.4272  0.1845
14139W        W45355  22.139   2.557   8.736 -0.1406 -0.0698 -0.0792
14140W        W45356  19.123   6.903   9.771  0.1811 -0.3153  0.0685
14141W        W45357   6.949   3.640   2.757  0.4220  0.0458  0.0405
14142W        W45358  14.670   9.142   0.651  0.1897 -0.3465  0.1661
14143W        W45359   7.431   4.112   9.355 -0.3920 -0.1614 -0.0177
14144W        W45360   0.794   3.292   0.098  0.1124  0.0733 -0.3509
14145W        W45361  23.079   2.839   8.935 -0.0508  0.2029  0.0416
14146W        W45362  11.286   3.345   2.170 -0.1518  0.2095 -0.0653
14147W        W45363   1.927   8.684   2.193 -0.1480 -0.1490  0.2140
14148W        W45364  10.299  21.706   9.041  0.0463  0.1831  0.1233
14149W        W45365  13.850  26.523   8.224  0.0456  0.2155 -0.2295
14150W        W45366  11.386  11.198  10.440 -0.4575  0.3415  0.5004
14151W        W45367   2.163  27.097   2.454 -0.2329 -0.0052 -0.1811
14152W        W45368  24.908   9.183   2.193  0.1531 -0.1364 -0.0176
14153W        W45369  14.476   2.340   0.389 -0.0014  0.3071 -0.1998
14154W        W45370  13.003   0.931   3.504  0.0446 -0.5809  0.3038
14155W        W45371  11.942   5.654   8.166  0.0574  0.0191 -0.2568
14156W        W45372  16.073  12.384   9.481 -0.1807  0.2034  0.0341
14157W        W45373  26.508   1.508  10.041 -0.1188  0.1476 -0.2201
14158W        W45374  20.068  21.655   8.917  0.0877 -0.0432 -0.1278
14159W        W45375  22.608  23.022   9.868 -0.0285  0.0904 -0.2804
14160W        W45376  12.233  16.063   9.831 -0.2679  0.1682  0.0030
14161W        W45377  12.949   7.514   1.852  0.0045  0.1374  0.0721
14162W        W45378  11.629  13.454   8.047 -0.0471  0.2865  0.2036
14163W        W45379  13.990  20.268   2.449  0.1506 -0.2845 -0.0987
14164W        W45380  16.863  22.348   3.361  0.0217  0.0355 -0.1574
14165W        W45381  25.018  15.608   0.367  0.0609 -0.0918 -0.0393
14166W        W45382  12.741  17.279  10.229  0.2411 -0.0403  0.1490
14167W        W45383  10.575   0.380   9.823 -0.0011  0.1390  0.3410
14168W        W45384  21.716  23.233   7.767  0.1172 -0.0548 -0.0958
14169W        W45385   8.992   4.475   1.150  0.1636  0.0980 -0.1947
14170W        W45386   0.234   5.271   0.440 -0.0526 -0.0379 -0.1277
14171W        W45387   5.691  11.167   2.316 -0.1132  0.0913  0.3135
14172W        W45388  13.226   0.319   9.646  0.0439  0.1459  0.0534
14173W        W45389  25.646  15.087   2.064 -0.0080 -0.0942 -0.0373
14174W        W45390  23.842  24.995   1.289 -0.0425  0.0090  0.3739
14175W        W45391  11.642  25.657  10.111 -0.2018 -0.0790  0.0329
14176W        W45392  23.821  20.965   0.471  0.2294 -0.3054  0.1118
14177W        W45393  23.625  12.573   9.654 -0.2943  0.2511  0.1387
14178W        W45394   3.853   4.396   1.976  0.0296  0.3851 -0.3718
14179W        W45395  11.471   2.851   3.385 -0.2121  0.1961  0.0382
14180W        W45396   7.487   3.506   0.092 -0.0133  0.0966  0.2929
14181W        W45397  20.360   8.244   8.132  0.0279  0.0176 -0.1926
14182W        W45398  22.863   8.575   9.068  0.1254  0.3185  0.4134
14183W        W45399  25.300  26.583   9.633  0.0270 -0.0853  0.2904
14184W        W45400  25.412   8.525   9.216 -0.1019 -0.0246  0.0300
14185W        W45401  17.140  17.404   0.588 -0.2562  0.0387 -0.1597
14186W        W45402   3.247  24.750   1.003  0.1229  0.1994  0.2171
14187W        W45403   8.327  22.364   0.747 -0.1087  0.3291  0.0296
14188W        W45404  19.607  15.842   0.379  0.1960 -0.1290  0.1197
14189W        W45405   1.981  14.457   2.550 -0.5501 -0.2521  0.3127
14190W        W45406  15.381  11.049   2.986 -0.3541  0.0726 -0.3138
14191W        W45407  13.267   1.356   3.789 -0.0675  0.0216  0.0308
14192W        W45408  13.521   5.627   2.483 -0.0921  0.1273 -0.0725
14193W        W45409  20.090  12.984   1.833 -0.1025 -0.0201  0.0100
14194W        W45410  22.775  19.172   8.230 -0.0036 -0.1286 -0.0423
14195W        W45411  13.569   5.498   1.375 -0.1278  0.0741 -0.1727
14196W        W45412   1.416  15.223   9.381  0.1489 -0.1230  0.2291
14197W        W45413   5.501   9.944   7.382 -0.5267 -0.1607 -0.1927
14198W        W45414  13.024  12.248  10.150  0.0163 -0.0110  0.2474
14199W        W45415  18.640  11.663  10.180  0.3705  0.2353 -0.1452
14200W        W45416  26.368  19.704  10.263 -0.1647 -0.0171 -0.4019
14201W        W45417   4.817  14.069   9.205 -0.1124 -0.3956 -0.3260
14202W        W45418  12.916  17.100   9.775  0.2574 -0.3161  0.0625
14203W        W45419  19.377  20.320   8.537  0.3014 -0.0488  0.0281
14204W        W45420   3.127  24.331   9.706  0.3072  0.2022 -0.1585
14205W        W45421  18.477  16.085   3.720  0.1398  0.1350  0.0321
14206W        W45422  10.502  21.810   9.911  0.4053 -0.0772 -0.2118
14207W        W45423   8.519   4.611   7.455 -0.1413  0.0635 -0.1013
14208W        W45424   6.872  23.986   9.216  0.1991  0.3664 -0.1157
14209W        W45425  22.371   6.396   8.384 -0.1282  0.4123 -0.0206
14210W        W45426  21.299  13.525   8.960 -0.0072  0.0946 -0.3401
14211W        W45427  12.329  15.104   2.422  0.0318 -0.1536  0.2951
14212W        W45428  20.566   2.777   9.157  0.0815  0.2457  0.2122
14213W        W45429  10.927  24.901   0.188  0.0517  0.0785 -0.1714
14214W        W45430  11.367   5.102   1.528  0.1042  0.0514 -0.0984
14215W        W45431  27.386   6.548  10.478 -0.2883  0.0321 -0.0966
14216W        W45432  12.786   0.134  10.245 -0.0556 -0.1709  0.0231
14217W        W45433   8.072  10.083   0.430  0.1209  0.0481  0.1838
14218W        W45434  11.230  17.455   9.545 -0.0975 -0.0814  0.1423
14219W        W45435   1.062   2.064   3.524  0.3722  0.0388  0.2388
14220W        W45436  11.574  21.520   8.776 -0.4488 -0.1719 -0.0275
14221W        W45437  24.227  15.694   2.903 -0.1249 -0.0039  0.0541
14222W        W45438   2.770  13.952   2.441  0.0414  0.1457  0.2275
14223W        W45439   6.428  25.031   0.937  0.1960  0.2985  0.0511
14224W        W45440  17.303   9.065   9.722 -0.1534  0.0063 -0.4084
14225W        W45441  24.013   5.079   1.539  0.2942  0.0279 -0.0025
14226W        W45442   9.243  23.964   8.138 -0.0431  0.0073  0.2276
14227W        W45443   3.649   9.566   9.633 -0.1525 -0.1653 -0.1382
14228W        W45444   1.973  19.356   1.422 -0.1508  0.2571 -0.0348
14229W        W45445  20.632  15.865   0.954  0.2870  0.2153 -0.0722
14230W        W45446   4.244   5.808   0.519  0.1597  0.0115 -0.0347
14231W        W45447   6.333   6.199  10.014  0.0593 -0.1452  0.0704
14232W        W45448  15.146   8.448   9.932  0.0135 -0.1431 -0.3728
14233W        W45449   6.425  24.119   8.853  0.1123 -0.0335 -0.2033
14234W        W45450  10.562   8.174   1.967  0.1310  0.3168 -0.1619
14235W        W45451   4.688  22.958   9.200  0.2244 -0.3059  0.1499
14236W        W45452  13.425   8.599  10.530  0.4262 -0.1126  0.2483
14237W        W45453  15.530  11.373   7.392  0.1030  0.1843  0.1344
14238W        W45454   7.693  15.708   8.855 -0.0163 -0.1308  0.2226
14239W        W45455   9.872  24.002   1.278 -0.2993  0.0023 -0.4356
14240W        W45456  16.399   0.818   7.826 -0.1948  0.0814  0.3731
14241W        W45457  24.741  15.727   9.637  0.0969 -0.0888  0.1682
14242W        W45458   8.634   1.044   2.636 -0.0053 -0.1663 -0.1610
14243W        W45459   2.670  10.705  10.242 -0.0522 -0.1834  0.1710
14244W        W45460  24.430  21.123   7.112 -0.0276 -0.0259  0.2851
14245W        W45461  16.501  20.445   3.089 -0.3795  0.0291 -0.2297
14246W        W45462  20.818   1.305   3.363 -0.1336  0.0563  0.0165
14247W        W45463   8.647   6.515   0.946  0.2064 -0.1582 -0.1504
14248W        W45464   5.332  17.928   7.187 -0.0864  0.3227  0.2157
14249W        W45465   1.502  16.547   9.832 -0.5095 -0.1906  0.1006
14250W        W45466  18.352   6.839   2.013  0.0038 -0.1897  0.2171
14251W        W45467   8.033  15.123   2.551  0.3330 -0.2660  0.2240
14252W        W45468   2.730  23.851   0.765  0.0001  0.2769 -0.1460
14253W        W45469  10.978   9.321   2.802  0.2864 -0.3545  0.0269
14254W        W45470  25.109   1.852   9.717  0.0404 -0.0037  0.0104
14255W        W45471  22.885   1.834   1.778  0.1863 -0.0105 -0.1775
14256W        W45472  15.930   9.825   1.342 -0.2220  0.0091 -0.0063
14257W        W45473   9.166   3.391   3.490  0.0455 -0.0799 -0.1634
14258W        W45474   4.438   1.074   1.628  0.0481  0.0144 -0.1917
14259W        W45475  10.161   4.487   3.105  0.0929  0.0647  0.3307
14260W        W45476   1.193  27.473   0.082 -0.1697  0.0707 -0.0243
14261W        W45477  19.853   6.466   8.915 -0.0594  0.0020  0.1162
14262W        W45478  12.816   1.380   9.964  0.1030  0.3669 -0.0143
14263W        W45479  17.979  24.226   3.439  0.1513 -0.1051  0.1333
14264W        W45480   3.901  17.973   2.941 -0.0666 -0.1719 -0.1754
14265W        W45481  16.298  26.723   9.955  0.1501 -0.0539  0.2962
14266W        W45482  12.494   9.584   0.160 -0.0199 -0.2513 -0.2454
14267W        W45483  23.397  22.670   1.798  0.1427  0.0656  0.0144
14268W        W45484   8.200  10.101   8.865 -0.1800 -0.2262  0.1654
14269W        W45485   7.524   1.668   0.780  0.1729 -0.2317 -0.0824
14270W        W45486  15.890  16.029   2.192 -0.3332  0.1686 -0.1276
14271W        W45487  26.622  13.948   3.901 -0.0208 -0.0561  0.2865
14272W        W45488  25.641  23.128   0.364  0.1413 -0.1708  0.1456
14273W        W45489  25.972   3.167   0.152 -0.1026  0.0779 -0.1195
14274W        W45490  16.890   6.440   8.548 -0.2156  0.0125 -0.3953
14275W        W45491  10.910  22.178   0.821  0.2312  0.1676 -0.0864
14276W        W45492  10.404  14.945   0.335  0.0160 -0.1045  0.2209
14277W        W45493   4.215  25.455   2.015  0.0887  0.1175  0.0688
14278W        W45494  26.508   6.395  10.475  0.0095  0.1727 -0.1655
14279W        W45495   0.460  26.148   9.737 -0.1656  0.1507 -0.2717
14280W        W45496   1.848  15.599   0.879 -0.0128  0.0420  0.0624
14281W        W45497   0.649  13.829  10.128 -0.1122  0.0950 -0.3566
14282W        W45498  26.614  15.031   7.947 -0.1589  0.1643  0.0532
14283W        W45499   1.588   4.399   2.161  0.2251 -0.1841  0.0044
14284W        W45500  24.097  24.907   7.474 -0.0394  0.0042 -0.3067
14285W        W45501  23.656  13.193   8.772  0.0404  0.0099  0.0242
14286W        W45502  23.491   3.820   0.761 -0.1631  0.1093 -0.1080
14287W        W45503   1.096  14.243   9.663 -0.1503  0.0097  0.1149
14288W        W45504  18.774  17.769   9.331  0.1305  0.1329 -0.3290
14289W        W45505   6.447   6.909   0.594 -0.0972 -0.3530  0.1498
14290W        W45506  15.843   9.931   9.610 -0.2077 -0.1203 -0.0838
14291W        W45507  25.178   8.197   8.209 -0.2522 -0.4530  0.1550
14292W        W45508  18.641  12.566   0.069 -0.1232 -0.1619 -0.0374
14293W        W45509   3.790  21.407   0.604  0.0640 -0.2159  0.0081
14294W        W45510  15.365  25.653   4.394 -0.2644  0.1017  0.0796
14295W        W45511  26.558  22.154   3.298  0.2072  0.1738 -0.2237
14296W        W45512   7.560   3.069   1.608 -0.2932 -0.2393 -0.1187
14297W        W45513  21.383   4.867   8.314 -0.0101  0.4036  0.0819
14298W        W45514  11.116   8.645   1.873 -0.0929  0.1307  0.2708
14299W        W45515   1.759  13.702   1.849  0.1989 -0.1577  0.0333
14300W        W45516  14.933   5.124   1.481 -0.0078  0.0702  0.1166
14301W        W45517  25.850  17.008   8.331  0.2990  0.2641  0.2880
14302W        W45518  15.864   8.491   7.722 -0.0640 -0.1913 -0.1535
14303W        W45519   1.848   9.175   1.108  0.0529 -0.1721  0.0032
14304W        W45520  11.264   7.576  10.519  0.0397  0.0917 -0.2849
14305W        W45521  10.212  25.193   3.220  0.1715 -0.4161 -0.0619
14306W        W45522  10.785  16.070   8.408 -0.0321  0.2103  0.1648
14307W        W45523  14.442  22.147   1.597  0.0324  0.0235  0.0901
14308W        W45524  19.380   5.770   9.379  0.2583  0.0125  0.0833
14309W        W45525  18.566  17.322   0.168 -0.3138  0.1424  0.3014
14310W        W45526  12.161  26.975   1.405 -0.1042 -0.2285  0.3858
14311W        W45527   8.513   8.163   8.074  0.0533  0.1557  0.2713
14312W        W45528  19.512   0.059   0.031  0.0102  0.4030  0.2112
14313W        W45529  18.887  19.464   8.124 -0.2250  0.0963  0.0634
14314W        W45530  16.448   3.474   7.595  0.1728  0.3082 -0.0146
14315W        W45531  26.463  18.595   1.386 -0.1868 -0.0365  0.1031
14316W        W45532  18.914  20.349   2.859  0.1065 -0.0767  0.1973
14317W        W45533  19.409   2.650   7.377 -0.0085 -0.2208  0.2128
14318W        W45534  21.002   1.745   2.872 -0.0143  0.2000  0.1478
14319W        W45535  10.880   3.035   2.336  0.0379  0.0419 -0.0118
14320W        W45536   0.913  19.901  10.253  0.2103 -0.2399 -0.0906
14321W        W45537   5.396  21.451   2.811  0.2673  0.1175  0.1337
14322W        W45538  20.651   3.854   8.650 -0.3803 -0.1051 -0.0614
14323W        W45539   0.773  12.776   1.909 -0.0514 -0.2469 -0.0967
14324W        W45540  23.332  14.676   1.000  0.1851 -0.0816 -0.1989
14325W        W45541  18.572   3.424   2.558 -0.2633  0.0591 -0.2006
14326W        W45542  11.532  23.402   0.647 -0.2237  0.1665 -0.2150
14327W        W45543   4.391   5.405   9.526 -0.0889 -0.1339 -0.0380
14328W        W45544  10.470   4.002   2.404 -0.0924 -0.1447  0.1594
14329W        W45545   8.661  22.603   8.345  0.0693  0.0013 -0.1059
14330W        W45546   7.582   5.054   8.997  0.2321  0.2291  0.2401
14331W        W45547   1.670   4.811   1.657  0.1362  0.2822 -0.3890
14332W        W45548  22.460  24.800   1.760 -0.0933  0.0062  0.1706
14333W        W45549  13.165   2.310   9.558  0.1860  0.0263  0.1410
14334W        W45550  16.569  19.932   3.073 -0.1665  0.2046 -0.0963
14335W        W45551  11.268   3.794   3.327  0.0625 -0.1366 -0.1069
14336W        W45552   1.040   3.090   7.968 -0.1152 -0.0091  0.0186
14337W        W45553  23.438  16.611   1.795 -0.1031  0.0132  0.0192
14338W        W45554  25.218  25.243   0.874 -0.0944  0.2428 -0.0110
14339W        W45555  13.497  17.743   0.989  0.1457  0.0936 -0.1131
14340W        W45556   2.794   9.466   8.332 -0.0919  0.0528 -0.2190
14341W        W45557   7.517  15.156   9.932 -0.1311  0.3467 -0.1432
14342W        W45558   9.063   4.454   2.393  0.1458 -0.1815  0.0494
14343W        W45559  13.594  20.907   9.112  0.1613 -0.0860 -0.0923
14344W        W45560   0.756  16.294   1.501 -0.0748  0.0443 -0.0990
14345W        W45561  21.063  23.693   1.879  0.1332 -0.3615  0.0815
14346W        W45562  17.971   3.965   1.074  0.2237 -0.0178  0.1593
14347W        W45563   0.946   6.614   9.510  0.0661 -0.3371 -0.0497
14348W        W45564   1.767   5.889   9.730  0.1317  0.2618  0.1312
14349W        W45565  26.150   1.673   0.467 -0.2484  0.0414 -0.0909
14350W        W45566   0.540   4.817   0.512  0.0226  0.0390 -0.0689
14351W        W45567  10.198   8.757   9.778 -0.3554 -0.0341  0.1556
14352W        W45568   8.627  25.392   0.261  0.0481 -0.0227 -0.1458
14353W        W45569   9.047  21.455  10.540 -0.1990 -0.0613  0.1144
14354W        W45570   9.512  22.970   2.366  0.2596  0.1854  0.1468
14355W        W45571   8.775   1.002  10.162 -0.1544  0.5359 -0.0765
14356W        W45572   2.618  11.236  10.302  0.1047  0.1462 -0.1312
14357W        W45573   8.079   0.899  10.071  0.0546  0.0597  0.2500
14358W        W45574   8.457  20.061   1.315 -0.0469  0.1983 -0.5054
14359W        W45575  20.176  21.584   9.733 -0.2776  0.1742  0.2832
14360W        W45576   6.049  10.089   1.685 -0.0601  0.1753  0.2800
14361W        W45577  21.242  20.980   9.249 -0.0606  0.0911 -0.2373
14362W        W45578  19.477  13.387   2.210  0.1656  0.2450  0.3072
14363W        W45579   8.414   5.972   3.488  0.0420 -0.0021  0.0043
14364W        W45580   6.516  27.567   3.034 -0.2774 -0.1812  0.0610
14365W        W45581   5.434  19.275   2.384  0.0630 -0.1863 -0.5462
14366W        W45582  12.626  10.531   1.698  0.0654  0.1518 -0.2446
14367W        W45583  19.822  14.634   8.161  0.0977 -0.2233  0.2862
14368W        W45584  22.410  15.850   7.663  0.1584 -0.0681  0.1489
14369W        W45585   2.006  16.391   1.594 -0.0912 -0.2843  0.1823
14370W        W45586  23.095   3.902   0.509  0.0087 -0.3890  0.1933
14371W        W45587  18.050  21.174   8.603  0.4103  0.0220  0.2369
14372W        W45588   8.390  17.157   0.906  0.5764  0.1260  0.1617
14373W        W45589   5.084  24.296   1.402 -0.1005  0.3083  0.1549
14374W        W45590   8.590  26.048   0.625  0.0880 -0.1197 -0.1450
14375W        W45591  10.048  22.978   2.751 -0.0592  0.2006  0.0669
14376W        W45592  14.002   5.745   8.960 -0.1103  0.0059  0.0720
14377W        W45593  17.252  11.578   1.045 -0.0494 -0.1272  0.0893
14378W        W45594  17.924   8.091   9.696  0.0972 -0.1256 -0.1744
14379W        W45595   6.644   9.474   2.022  0.2293 -0.1234 -0.0145
14380W        W45596  17.255   0.976  10.098  0.1287 -0.1321 -0.0828
14381W        W45597  20.932   3.030   8.899 -0.2300 -0.1580 -0.2102
14382W        W45598  25.823  13.020   3.089  0.0780  0.2602  0.3480
14383W        W45599  18.026  22.981   1.518 -0.1568 -0.0857 -0.3380
14384W        W45600  17.849  26.820   0.116  0.1158  0.1133 -0.0245
14385W        W45601  21.455   7.509   9.328  0.0620  0.2214 -0.3799
14386W        W45602  10.897   6.810   8.110 -0.0611 -0.0379 -0.1329
14387W        W45603  20.316  21.069   3.602 -0.0851  0.0392 -0.3576
14388W        W45604  23.682  27.332   0.223  0.0297  0.0683 -0.1124
14389W        W45605  13.101  12.426   1.484 -0.2947 -0.2553 -0.0018
14390W        W45606  11.109  13.411   0.585  0.0448 -0.2051 -0.3602
14391W        W45607  26.241  17.168   2.014  0.2971 -0.0357 -0.2789
14392W        W45608   1.506  18.189   9.788 -0.0555 -0.1976 -0.0765
14393W        W45609   2.500  16.545   1.587  0.2374  0.1403  0.0448
14394W        W45610   0.148  25.791   8.962  0.0415 -0.2736  0.2751
14395W        W45611  16.112  24.703   3.485 -0.0984 -0.0514  0.1855
14396W        W45612   7.176  22.233   2.383  0.1420  0.2638 -0.1128
14397W        W45613  20.908   2.231   3.050  0.1520 -0.0377  0.5179
14398W        W45614  16.106  13.284   2.949 -0.1058  0.1247 -0.2143
14399W        W45615  22.089   6.738   2.329 -0.2658 -0.0417  0.0531
14400W        W45616  24.567   0.769   8.746 -0.0661  0.4546  0.0601
14401W        W45617  22.234  23.612  10.468  0.2729 -0.0372  0.0958
14402W        W45618   7.832  14.814   3.187  0.1833 -0.1939  0.0666
14403W        W45619   8.389   9.163   8.690  0.0342 -0.1273  0.0224
14404W        W45620  17.491   1.227   9.227  0.2153 -0.1914  0.0818
14405W        W45621   9.655  14.009   0.387  0.0470 -0.0603 -0.0885
14406W        W45622  14.723   7.970   8.895 -0.0956 -0.0892  0.0587
14407W        W45623  25.704  23.540   0.041 -0.1306 -0.2044  0.0617
14408W        W45624   9.069  14.004   8.975  0.0935  0.2053  0.1366
14409W        W45625   7.451  14.060  10.538 -0.0291 -0.0969  0.3151
14410W        W45626   2.081   1.885   8.050 -0.0034 -0.0321  0.3340
14411W        W45627  11.660   7.980  10.393  0.0040 -0.4495 -0.4886
14412W        W45628  27.353   1.411   3.081 -0.0227 -0.2137 -0.3452
14413W        W45629   4.482  16.683   1.434  0.1054 -0.0589  0.1001
14414W        W45630   6.959  14.100   1.279  0.1983  0.1619  0.1049
14415W        W45631   9.463  18.093   0.161 -0.3270  0.0546 -0.0690
14416W        W45632   5.344  20.435   3.182 -0.1002  0.1684  0.3933
14417W        W45633  15.508   8.888   8.704  0.3000  0.2204  0.1351
14418W        W45634  23.939  24.429   3.103 -0.1045  0.0845 -0.0284
14419W        W45635  15.750   7.029   7.459 -0.1042 -0.1798  0.0936
14420W        W45636  21.841   4.830   0.026  0.1856  0.2301  0.1129
14421W        W45637  14.078  21.827   9.734 -0.0136 -0.1222  0.3760
14422W        W45638  16.706  23.094   0.411 -0.0424  0.0520 -0.0607
14423W        W45639  22.613  27.441   8.188 -0.1387  0.0583  0.1293
14424W        W45640  11.048  25.760   3.951  0.2329 -0.3353  0.0002
14425W        W45641   0.250   9.247   2.138  0.3065 -0.0675  0.3124
14426W        W45642   7.925  11.361   3.070 -0.1296  0.0781  0.1696
14427W        W45643  20.411   8.848   0.058 -0.0825  0.1017  0.0102
14428W        W45644  21.329  12.580   8.533 -0.2310 -0.3126 -0.0576
14429W        W45645  13.795  23.650   1.476  0.0162 -0.0460 -0.2324
14430W        W45646   8.577   0.343   3.667  0.0863 -0.1661 -0.1949
14431W        W45647   8.186  20.885   1.793 -0.0945 -0.0042  0.1224
14432W        W45648  21.251  13.617   1.611 -0.3649  0.4571 -0.0289
14433W        W45649   2.049   8.607   8.866 -0.1202  0.0495 -0.1309
14434W        W45650   5.680   4.664   2.190  0.1302  0.1754 -0.0888
14435W        W45651   1.831   0.940   1.843  0.0808 -0.2061  0.0005
14436W        W45652   9.933   7.174  10.154 -0.0924  0.3329 -0.1436
14437W        W45653  16.421  26.012   1.933  0.2934  0.1041 -0.0982
14438W        W45654  22.651  20.390   0.345 -0.0721  0.2191  0.2626
14439W        W45655  11.583  12.483   1.225  0.1706  0.2107 -0.0101
14440W        W45656   5.355  14.588   7.676 -0.1146 -0.1800  0.0263
14441W        W45657  15.991  15.301   0.512 -0.0473 -0.1688  0.2676
14442W        W45658   0.816   2.385   0.508  0.0696  0.1099  0.3065
14443W        W45659   9.219  14.804   8.562  0.1185  0.0997  0.3496
14444W        W45660  13.575   3.277  10.263 -0.3194 -0.1245  0.0378
14445W        W45661   1.999  23.970   8.328 -0.1116  0.4113 -0.1023
14446W        W45662   8.981  17.997   9.674 -0.0492  0.0767  0.1373
14447W        W45663   4.979   1.005   1.613  0.3222 -0.3875  0.0849
14448W        W45664   9.403  20.179   9.739  0.0604  0.0507 -0.4289
14449W        W45665  23.675  16.387   9.562  0.1909 -0.3081  0.1733
14450W        W45666  15.902   9.745   8.679 -0.0908 -0.0858 -0.2070
14451W        W45667  25.800  21.735   8.026 -0.2044  0.0839 -0.1016
14452W        W45668  17.296  20.187  10.490  0.0201  0.1467 -0.1224
14453W        W45669   6.857  26.919   7.450  0.3837  0.2573  0.1509
14454W        W45670  12.128  23.259   0.591 -0.0016  0.0747 -0.3304
14455W        W45671   0.142   2.841  10.049 -0.1448  0.0702  0.3456
14456W        W45672  24.403  23.853   0.516 -0.2436  0.0151  0.2658
14457W        W45673  23.993   7.186   2.929 -0.2882 -0.2599 -0.2406
14458W        W45674   5.710  18.584   1.708  0.1114 -0.2013 -0.2306
14459W        W45675   1.023   5.230   0.678 -0.0040 -0.2204 -0.0441
14460W        W45676  21.028   8.247   8.706  0.4309  0.1031  0.1712
14461W        W45677  15.262  25.747   1.956  0.5282  0.1734 -0.2109
14462W        W45678  10.038  14.625   3.043  0.3197 -0.2332  0.2188
14463W        W45679  26.838  10.010   1.673  0.2636 -0.2058 -0.0745
14464W        W45680   4.615   2.722   8.854 -0.4973 -0.0642  0.2489
14465W        W45681  13.653   5.976   1.222  0.4387 -0.0849  0.1131
14466W        W45682  19.857   3.893   1.659  0.1271  0.2308 -0.0937
14467W        W45683  13.346  22.241  10.495 -0.2756  0.0206  0.2596
14468W        W45684   2.515  19.892   3.154  0.0105  0.0881  0.0540
14469W        W45685   3.708  25.886   9.077 -0.1370 -0.0512  0.0698
14470W        W45686  19.276  22.992   3.876  0.1757  0.0499 -0.1786
14471W        W45687   5.491   7.619   9.610 -0.0419  0.0266 -0.0674
14472W        W45688  27.301  15.961   9.503  0.5434 -0.0404  0.0089
14473W        W45689  21.346   1.870   9.762  0.0464  0.3298 -0.1816
14474W        W45690  26.212  13.938   2.652 -0.2970  0.2970 -0.1951
14475W        W45691   0.102  12.744   9.011 -0.2814  0.2943  0.0232
14476W        W45692  13.829  15.385   2.956 -0.0479  0.0312 -0.1194
14477W        W45693   6.316   8.678   9.168  0.0338 -0.1973  0.1571
14478W        W45694  13.463   9.248   1.753 -0.0969 -0.2113  0.0394
14479W        W45695  18.498  20.954   2.291 -0.0426  0.0428 -0.0905
14480W        W45696  23.831  10.676   0.433  0.0770 -0.2362  0.3529
14481W        W45697  26.582  24.844   8.102 -0.1788  0.2331  0.0719
14482W        W45698  21.744  27.468   3.159  0.0666  0.0710  0.1489
14483W        W45699  22.799   4.617   8.251  0.0483  0.1525  0.2081
14484W        W45700   8.778  10.641   9.129 -0.1143 -0.1724  0.1999
14485W        W45701   6.286  19.664   2.780  0.2313 -0.0885 -0.0903
14486W        W45702   3.950  23.444   2.423  0.0070 -0.1789 -0.0433
14487W        W45703  11.341  10.549   7.758  0.0867  0.2255 -0.2751
14488W        W45704  13.375  10.498   9.276  0.0893 -0.1145  0.0995
14489W        W45705  21.049  19.315   9.776 -0.1823  0.0091  0.0539
14490W        W45706   9.064  26.687   3.264 -0.3111 -0.1458  0.0360
14491W        W45707  23.284  24.721  10.403  0.0608 -0.0085 -0.0363
14492W        W45708  18.938   9.262   9.174 -0.0852 -0.1304  0.1408
14493W        W45709   4.799  23.672   0.542 -0.2558  0.1705 -0.0010
14494W        W45710  16.552   3.808   9.675  0.2046  0.1250 -0.0089
14495W        W45711   7.710   2.004   9.221  0.1363  0.0880 -0.0751
14496W        W45712  24.657  25.601   9.435 -0.1205  0.0079  0.2698
14497W        W45713   9.652   1.768   9.617 -0.0961  0.0412 -0.1930
14498W        W45714  23.447  15.874   0.303 -0.1850 -0.1118  0.0421
14499W        W45715  26.246  17.601   7.649 -0.0602 -0.2131  0.1840
14500W        W45716   3.001  15.396   8.529  0.1342  0.1150  0.1603
14501W        W45717  22.427  26.570   0.923 -0.0042  0.1435 -0.2819
14502W        W45718   7.673  22.410   2.208  0.1173 -0.0473 -0.2276
14503W        W45719  22.882   6.111   1.736 -0.2019  0.1706 -0.2045
14504W        W45720   8.767   5.628  10.408  0.0625  0.3032  0.0985
14505W        W45721   7.568  23.689   3.023  0.1217 -0.3850 -0.0327
14506W        W45722   6.822  11.264   3.144  0.1334 -0.2398 -0.2324
14507W        W45723  19.887   0.309  10.298 -0.0337 -0.0723 -0.2378
14508W        W45724   3.148  11.761  10.274  0.3114 -0.0118 -0.1170
14509W        W45725   7.872  22.379   8.477  0.0096  0.1633  0.1950
14510W        W45726  11.037  25.372   2.718  0.1177  0.2029  0.2837
14511W        W45727  27.034  16.431   9.491 -0.0858  0.0731 -0.0260
14512W        W45728  26.187   8.283   1.745  0.0065  0.2872 -0.0800
14513W        W45729   2.152  10.512   1.843 -0.4299 -0.0955 -0.0213
14514W        W45730  22.642  17.476  10.126 -0.1115  0.1246  0.0889
14515W        W45731   0.989   6.022   0.196 -0.2000 -0.3557 -0.0236
14516W        W45732   6.563   8.224   7.821  0.2243 -0.1381  0.1219
14517W        W45733  22.613  21.618  10.325  0.1258 -0.0610  0.0670
14518W        W45734   2.664   5.474   2.208 -0.2872 -0.1183 -0.0880
14519W        W45735   3.722  26.254   3.592  0.0762  0.2480  0.1153
14520W        W45736  16.304  12.256   8.150 -0.1122  0.0223 -0.0408
14521W        W45737  11.248   1.003   1.611  0.0562 -0.2224  0.2456
14522W        W45738   5.695   2.965   0.315  0.1821  0.0647 -0.1567
14523W        W45739   8.157  27.082   2.696 -0.0481 -0.0402 -0.1991
14524W        W45740  23.478   7.320   9.660 -0.1753 -0.0029 -0.0133
14525W        W45741  14.808  13.351   9.104 -0.1151 -0.0629  0.1073
14526W        W45742   2.435  16.082   1.808 -0.0823  0.4262 -0.0436
14527W        W45743  22.377   2.065   0.387  0.1494 -0.2206 -0.1260
14528W        W45744   0.326  12.613   1.744 -0.2034  0.0949 -0.0589
14529W        W45745  13.776  19.886   0.145 -0.0401 -0.0168  0.0044
14530W        W45746  17.023   0.170   9.708  0.2928  0.0595 -0.2288
14531W        W45747  18.281  15.002   0.544  0.7118  0.0237 -0.0077
14532W        W45748  13.612   2.331   1.117 -0.1920  0.0563  0.2442
14533W        W45749   1.418  17.601   2.278  0.1503 -0.0570  0.1341
14534W        W45750   4.757  16.100   8.680  0.1175 -0.3255  0.1503
14535W        W45751  20.400   4.018   9.613  0.0713  0.2806 -0.0961
14536W        W45752   7.383  17.642   1.345  0.6641 -0.3002 -0.2737
14537W        W45753  26.203  17.729   2.984 -0.0233  0.0885 -0.2428
14538W        W45754  12.640   2.930   1.175  0.1986  0.0067 -0.1825
14539W        W45755  18.587   3.754   2.928  0.1343  0.0327 -0.1625
14540W        W45756  15.842  18.274   1.963  0.2036  0.3652  0.1470
14541W        W45757   3.062  16.642   1.163  0.2025  0.1190 -0.0541
14542W        W45758  25.659  14.614   3.173 -0.2453  0.0543  0.3322
14543W        W45759  16.703  25.192   1.378  0.1730  0.1772  0.1541
14544W        W45760   5.513  20.332   0.134  0.2192  0.1851  0.0715
14545W        W45761  21.860  23.515   2.624  0.1926  0.1346 -0.0411
14546W        W45762   2.037  11.330   8.081 -0.0698 -0.1777  0.0487
14547W        W45763  10.035  18.574   9.055  0.0427 -0.1048 -0.2492
14548W        W45764  20.322  18.185   2.289 -0.2449  0.0999  0.0216
14549W        W45765  12.769   8.940   3.325 -0.2038  0.0031  0.1312
14550W        W45766   7.039  21.817   8.368 -0.2387 -0.2101  0.2241
14551W        W45767   1.113  17.639   1.866  0.2840  0.2769 -0.0890
14552W        W45768   3.970   3.815   8.968 -0.0786 -0.1496 -0.0227
14553W        W45769  23.841  13.157   7.968  0.2202 -0.2231 -0.0680
14554W        W45770  27.093   4.216   0.709 -0.4554  0.0025 -0.1212
14555W        W45771  23.929   4.550   3.335 -0.2638 -0.1673 -0.1876
14556W        W45772  24.021   6.025  10.101 -0.1087  0.2511  0.0818
14557W        W45773  12.769  22.188   9.869 -0.0273 -0.0550 -0.0955
14558W        W45774  18.526  22.175   4.060  0.0824  0.2364  0.0317
14559W        W45775  15.243   7.454  10.131  0.0140 -0.1314  0.0719
14560W        W45776  20.944  26.808   9.543 -0.1208 -0.0509 -0.3095
14561W        W45777   8.246  15.870   8.767 -0.0785 -0.1383 -0.1055
14562W        W45778  24.313  20.857   1.276 -0.4481 -0.0695 -0.0866
14563W        W45779  22.875   3.398   2.193 -0.0382  0.0163 -0.3286
14564W        W45780  15.459  15.119   0.727  0.0617  0.0808  0.1549
14565W        W45781  21.508  12.043   2.478  0.3421  0.0157  0.1313
14566W        W45782  21.012   2.248   9.766  0.0174  0.0554 -0.0082
14567W        W45783  26.982  21.772   3.209  0.0023  0.2154  0.0023
14568W        W45784  11.371   6.961   1.039 -0.0991 -0.1537 -0.1145
14569W        W45785   8.334   8.047   0.916  0.0010  0.1694 -0.0889
14570W        W45786   4.989  22.089   2.290 -0.0108 -0.1670  0.3213
14571W        W45787  20.843   8.257   2.973  0.0182 -0.3454 -0.1368
14572W        W45788  24.700   9.575   9.247 -0.1435  0.0983  0.0084
14573W        W45789   3.463   1.946   1.413  0.3385  0.0988  0.1948
14574W        W45790   7.549   5.981   0.583 -0.0571  0.1225  0.1274
14575W        W45791  22.650  25.873   3.339 -0.1849  0.3213 -0.1542
14576W        W45792  23.690   0.921   0.303 -0.0885  0.1767  0.0426
14577W        W45793  10.091  21.638   0.927  0.2124  0.1840 -0.0869
14578W        W45794  20.972  13.176   3.606  0.0086  0.2817 -0.0426
14579W        W45795   2.716  25.738   1.313  0.1405 -0.1928  0.0645
14580W        W45796   0.229   3.170   8.935 -0.2006 -0.2207 -0.0972
14581W        W45797  24.110  12.429  10.394 -0.2667  0.0118 -0.5153
14582W        W45798   1.974   1.510   8.328  0.1554 -0.0267  0.0443
14583W        W45799  17.714   6.114   9.334  0.4523 -0.0798  0.0768
14584W        W45800   9.377  17.208   2.614  0.0421 -0.0974  0.1825
14585W        W45801  21.976   5.415   9.343  0.3672  0.2083 -0.1749
14586W        W45802  21.232  24.056   8.075  0.1562  0.2610  0.0365
14587W        W45803  23.866   5.387   0.964  0.3833 -0.0833 -0.3900
14588W        W45804  18.730  13.020   1.390  0.3608 -0.2792 -0.1832
14589W        W45805  12.853  23.747   3.130  0.1472  0.3337 -0.0553
14590W        W45806  16.143  19.817   2.860  0.2147  0.0901 -0.1658
14591W        W45807  11.678  24.336   1.838  0.3332  0.0540 -0.0430
14592W        W45808  15.797   3.902   0.069 -0.0836 -0.1610 -0.2242
14593W        W45809   6.770  15.398   8.780  0.2778 -0.2511  0.1793
14594W        W45810  27.151   4.932   9.404 -0.2504 -0.1922 -0.0478
14595W        W45811  18.880  11.813   3.682 -0.0388  0.2216  0.2583
14596W        W45812  22.483  27.175   1.155  0.1481 -0.1508  0.0258
14597W        W45813   8.416  23.342   1.196  0.0658 -0.0921 -0.0855
14598W        W45814  18.992   9.627   1.862  0.0488 -0.0670 -0.2204
14599W        W45815  11.359  16.899   1.516  0.1457 -0.0670  0.1041
14600W        W45816  19.159  18.670   2.855 -0.0194 -0.1945 -0.1387
14601W        W45817  26.156  19.306   2.780  0.2683 -0.0801 -0.0775
14602W        W45818   1.574  18.736   8.624  0.0108  0.0818 -0.0444
14603W        W45819  18.177   6.282   1.877 -0.2819 -0.2433  0.3236
14604W        W45820   2.917  22.576   9.307 -0.1271 -0.0686 -0.0192
14605W        W45821  16.000  24.153   2.514 -0.0827 -0.1817  0.0694
14606W        W45822  15.458  11.876   2.537 -0.1654  0.3790  0.0608
14607W        W45823   1.996  25.010   0.773  0.3576  0.0009 -0.0500
14608W        W45824  23.250  10.979   2.550 -0.1300 -0.1599 -0.2219
14609W        W45825   0.704   0.271   3.139 -0.1052 -0.1132 -0.1303
14610W        W45826   6.127   0.973   0.490  0.1201 -0.0257 -0.1721
14611W        W45827  26.701   9.307   9.216  0.1846 -0.0694  0.2614
14612W        W45828   2.507   5.912   2.127  0.2892  0.0751 -0.2383
14613W        W45829  25.982   0.455   8.531 -0.0154 -0.0320  0.2419
14614W        W45830  23.609  17.409   1.404 -0.2532 -0.0773 -0.1332
14615W        W45831  25.343  11.279   7.867  0.1388  0.2121 -0.1084
14616W        W45832   0.837  27.423  10.157 -0.2596 -0.0437  0.2254
14617W        W45833  20.802  17.052   7.537 -0.0868 -0.0158  0.0277
14618W        W45834   2.823  14.795  10.017  0.1076 -0.0292 -0.1699
14619W        W45835  14.606  16.527   3.864  0.1009 -0.2819 -0.1387
14620W        W45836   9.154  12.525   0.184 -0.0703  0.1371 -0.0692
14621W        W45837  18.267  22.628   8.902  0.2504 -0.1684 -0.0305
14622W        W45838  25.918  13.303  10.431 -0.0149 -0.0816 -0.4408
14623W        W45839  13.235   2.684   1.937  0.0550  0.2130 -0.1084
14624W        W45840  13.935   0.721   0.302  0.1927  0.0259  0.2233
14625W        W45841  19.275  16.076   0.838  0.1731  0.0950  0.0514
14626W        W45842  27.028   3.354   1.475 -0.0422 -0.2514  0.0320
14627W        W45843   3.060   3.753   0.015  0.0740  0.2421  0.3275
14628W        W45844  20.093  25.048   9.597 -0.0590 -0.0228 -0.4221
14629W        W45845   2.310   2.916   9.447 -0.1359  0.3800 -0.2495
14630W        W45846  22.221  23.363   1.826 -0.1705 -0.0560 -0.1071
14631W        W45847   8.232  10.326   3.539 -0.2275 -0.0965 -0.0634
14632W        W45848  26.461   0.110   2.887  0.2058  0.0894 -0.1553
14633W        W45849   5.484   0.824   0.686  0.2516  0.2467  0.1430
14634W        W45850   5.832   7.687  10.407 -0.0143 -0.1498  0.0664
14635W        W45851  19.122  19.922   8.305 -0.0215 -0.0434  0.1227
14636W        W45852  11.936  24.233   0.645 -0.2295 -0.0261 -0.2108
14637W        W45853  11.923   0.412   1.481  0.0734 -0.2504  0.1179
14638W        W45854  17.139  13.930   8.820 -0.1962 -0.0698  0.0325
14639W        W45855  19.928   5.659   0.513 -0.0428 -0.2645 -0.0903
14640W        W45856  18.234   8.652   8.725 -0.0640  0.2988 -0.2760
14641W        W45857  19.529   3.531   1.532  0.2281  0.3207  0.2257
14642W        W45858   5.864   9.740   2.563 -0.3223  0.0393  0.0221
14643W        W45859  12.059   9.821   2.824 -0.2962 -0.2450 -0.0378
14644W        W45860  23.987   0.225   8.316  0.1725 -0.0028 -0.0323
14645W        W45861  13.013   0.243   2.460 -0.0598  0.2949  0.2753
14646W        W45862  11.956  16.388   1.890  0.2321 -0.1906 -0.1895
14647W        W45863  14.384  10.110   9.446  0.4745  0.2055 -0.0827
14648W        W45864  16.939   4.497   8.964  0.0060 -0.1523  0.0799
14649W        W45865  16.763  13.426   7.777  0.2354 -0.1570 -0.0918
14650W        W45866  17.304  22.781   2.559 -0.0069  0.2346 -0.4153
14651W        W45867  20.882  16.331   0.935 -0.2155  0.0521  0.0990
14652W        W45868  27.326  11.179   9.704  0.1215 -0.0314  0.0124
14653W        W45869   5.342  16.600   0.832  0.3501  0.0550  0.2467
14654W        W45870  26.582  13.634   0.407 -0.1296 -0.1142  0.1343
14655W        W45871   0.552   1.854   0.438 -0.0154 -0.0397  0.2549
14656W        W45872  20.366  25.361   1.508  0.4310 -0.0005  0.1819
14657W        W45873  17.221   6.401   2.440 -0.1816 -0.2331  0.2467
14658W        W45874  13.007   4.681   9.263  0.1658 -0.2555  0.1437
14659W        W45875  25.372  24.759   1.784 -0.1577  0.0493  0.1641
14660W        W45876  25.594  15.994   8.356  0.1079 -0.2614  0.1778
14661W        W45877   5.302  15.488   7.332 -0.0942 -0.2297  0.2080
14662W        W45878  16.101  24.522   3.940  0.0785 -0.2841 -0.0700
14663W        W45879  13.685   9.177   3.627  0.1690  0.0035  0.0107
14664W        W45880  16.688   5.327   9.596 -0.0886 -0.1135  0.1667
14665W        W45881   7.529  19.372   9.650 -0.1638 -0.1319 -0.4323
14666W        W45882  12.438   8.642   3.505  0.2783  0.0765 -0.0241
14667W        W45883   7.543  20.710   9.591 -0.0242 -0.2083 -0.1394
14668W        W45884  12.050  17.046   9.671  0.1772  0.1103  0.4661
14669W        W45885  27.158   3.131   9.459  0.0282  0.3680  0.1588
14670W        W45886   9.366   2.842   8.653  0.5452 -0.0919 -0.0126
14671W        W45887  13.430   8.593  10.030  0.2011 -0.0909  0.3232
14672W        W45888  18.438  24.254   1.604 -0.2252  0.2528  0.0701
14673W        W45889  21.109  18.841   9.999  0.0652  0.2364 -0.1130
14674W        W45890   3.823   3.994   1.402 -0.0584  0.2040  0.1197
14675W        W45891   6.862  14.948   0.843  0.0925 -0.0021 -0.4702
14676W        W45892  15.439  20.819   9.299 -0.6833  0.2822 -0.3024
14677W        W45893   2.964  17.201   2.418  0.1512  0.1125 -0.2074
14678W        W45894   3.800   9.620   1.190  0.0005 -0.3943  0.1044
14679W        W45895   8.365   2.590   0.436  0.0090  0.0619 -0.2294
14680W        W45896  21.274  18.994   8.630 -0.2236 -0.1386  0.2621
14681W        W45897  16.876   2.870   9.190  0.1081  0.0331  0.3728
14682W        W45898   7.026  18.570   3.143 -0.0023 -0.2932 -0.2272
14683W        W45899   8.871   6.227   9.766 -0.0805  0.0192  0.0222
14684W        W45900   0.620  18.371   0.439  0.2720 -0.3150 -0.1616
14685W        W45901   5.763  15.869   8.523 -0.2495  0.0567  0.0970
14686W        W45902  19.578  16.683   7.732 -0.2274  0.2007  0.1712
14687W        W45903  24.380  19.976   2.479 -0.1134  0.1515 -0.2770
14688W        W45904  25.519  12.614   2.749 -0.0527 -0.2921 -0.3032
14689W        W45905  24.412  17.142   9.970 -0.0401 -0.5350 -0.0066
14690W        W45906   2.513   1.067   3.446  0.1381 -0.0954 -0.0479
14691W        W45907   0.397   7.150   2.672 -0.1031  0.2015 -0.1049
14692W        W45908   3.220  16.155   2.362 -0.2862 -0.1238  0.2451
14693W        W45909   5.005   9.681   9.069 -0.0683 -0.0422  0.2356
14694W        W45910  22.999  22.221   1.683  0.0390 -0.3867 -0.0584
14695W        W45911  15.334  17.612   9.974 -0.1985  0.0873  0.1116
14696W        W45912  19.914   6.743   7.902 -0.2576  0.3347  0.0209
14697W        W45913  24.962   4.027   9.300 -0.0144 -0.4348 -0.0681
14698W        W45914   5.832   7.211   9.489 -0.0742 -0.0466 -0.1928
14699W        W45915  21.117  26.438   2.688  0.1812 -0.1896 -0.4261
14700W        W45916  22.366  22.530   3.311  0.0174  0.1074  0.1442
14701W        W45917  13.777  19.106   2.440  0.1477  0.0529  0.1825
14702W        W45918  14.732   5.395   3.285  0.1538  0.1747 -0.0685
14703W        W45919  17.468  23.353   7.619  0.0797 -0.0772  0.0565
14704W        W45920   6.712   7.486   2.061 -0.1992 -0.0355 -0.3037
14705W        W45921  10.268  23.815   9.420 -0.0954  0.0890 -0.0216
14706W        W45922   9.688  25.127   9.435  0.2428 -0.2650  0.0127
14707W        W45923  22.794  16.699   0.071 -0.0221 -0.2939 -0.0792
14708W        W45924   3.179  21.802   1.370 -0.3022 -0.0357 -0.3344
14709W        W45925  21.070  15.755   1.711  0.1703  0.1113 -0.1856
14710W        W45926   6.460  27.282   8.449  0.0396 -0.1498  0.1225
14711W        W45927  18.100  25.953  10.476  0.1567 -0.1700 -0.0607
14712W        W45928  19.874   3.814   9.456 -0.0330  0.2531  0.0484
14713W        W45929  25.361  19.204   9.295 -0.1392  0.2531 -0.2372
14714W        W45930  24.964   7.930   3.555 -0.0387  0.1042 -0.3175
14715W        W45931   1.115  10.026   7.966 -0.1504  0.1809  0.0268
14716W        W45932  22.485  14.542   3.239 -0.1072 -0.4293 -0.0627
14717W        W45933  18.213  11.815   1.019 -0.1236 -0.2503 -0.1128
14718W        W45934  26.510   9.097   0.510  0.0141  0.0282  0.3769
14719W        W45935  23.093  27.171   7.732 -0.2228  0.0293 -0.2202
14720W        W45936  25.505   4.545  10.231 -0.1699 -0.0460  0.1857
14721W        W45937  22.207   1.532   0.349  0.1196 -0.2707 -0.1162
14722W        W45938  23.596  11.744   0.209 -0.0799 -0.1872 -0.0515
14723W        W45939  22.439  27.253   2.237 -0.0040 -0.0055  0.2114
14724W        W45940  10.816   6.780   9.150 -0.1852  0.3134  0.2080
14725W        W45941  16.908   1.316  10.212 -0.1651  0.3146 -0.1325
14726W        W45942   1.862  11.516  10.158 -0.1272  0.1254 -0.1764
14727W        W45943  10.655  23.645   0.252  0.1245  0.1927 -0.0505
14728W        W45944  22.674   3.928   7.643  0.1660 -0.1355  0.1788
14729W        W45945   0.617   7.540   9.479  0.0724  0.2291 -0.0100
14730W        W45946  20.090  26.520   1.055 -0.0873  0.4824 -0.0325
14731W        W45947   7.576  16.546   8.391  0.2244 -0.0107  0.2844
14732W        W45948   9.171   7.839   1.284 -0.2202  0.0883  0.2908
14733W        W45949  24.650  19.205  10.400 -0.1741 -0.3114  0.2337
14734W        W45950  10.992  25.112   9.564  0.2005 -0.1026 -0.0620
14735W        W45951  24.901  20.546   1.893 -0.0595 -0.0371 -0.0780
14736W        W45952  22.555  21.898   2.538 -0.1528 -0.0552  0.1507
14737W        W45953  12.898  11.848   8.329  0.0747  0.0575  0.2192
14738W        W45954  12.501  17.139   2.103 -0.0945 -0.1667 -0.0402
14739W        W45955  22.117   3.099   8.926  0.0325  0.1014  0.0443
14740W        W45956   4.374  20.554   0.005 -0.3155  0.1936 -0.0849
14741W        W45957  23.987  21.632   2.722 -0.2450  0.2181  0.0853
14742W        W45958  16.190  27.278   2.463 -0.4967  0.3130  0.0969
14743W        W45959   5.642  10.919   8.780 -0.2150  0.0072  0.2560
14744W        W45960  24.226  25.575   9.706  0.0591  0.0675 -0.0021
14745W        W45961  25.022  22.563   9.322  0.0714 -0.2562  0.1143
14746W        W45962  12.424  16.881   3.713 -0.1989 -0.1510  0.0656
14747W        W45963   2.709  24.261   3.660 -0.0410  0.3151  0.0351
14748W        W45964   2.413  24.364   8.415 -0.0855 -0.0340  0.2270
14749W        W45965  23.043  12.899   2.835 -0.1837  0.1941  0.0663
14750W        W45966   8.116   9.737   0.833 -0.1441  0.0775 -0.2495
14751W        W45967  15.466   3.058   1.080  0.0973 -0.0644  0.3056
14752W        W45968  22.383  12.499   2.033  0.3473  0.1035 -0.0204
14753W        W45969  21.555  21.672   1.857  0.0308  0.1325  0.1082
14754W        W45970  20.174   0.975   0.293 -0.0860 -0.0195  0.1349
14755W        W45971  23.137  14.520   1.446  0.0404  0.1780 -0.0839
14756W        W45972  16.961  12.122   3.084  0.0282 -0.0502 -0.1177
14757W        W45973   0.389  16.170  10.067 -0.0376 -0.1090  0.0178
14758W        W45974  27.295  27.121   8.148 -0.1720 -0.1446 -0.2551
14759W        W45975   5.257  24.984   9.790  0.1185  0.2340 -0.3866
14760W        W45976  11.699  19.351   1.550  0.1409  0.2868  0.3932
14761W        W45977  27.204   1.691   9.587  0.1557 -0.0165 -0.1060
14762W        W45978  15.412  25.972   0.193  0.3502  0.1077  0.3464
14763W        W45979  20.787   5.435   0.688 -0.2314 -0.2126 -0.0121
14764W        W45980   7.310  25.824   2.643  0.0041 -0.4108  0.1301
14765W        W45981  24.658  11.020   2.434  0.3239 -0.0046 -0.1083
14766W        W45982   6.036  18.819   0.356 -0.0140  0.1319  0.3154
14767W        W45983  12.804  13.734   9.791 -0.0336  0.2938 -0.0891
14768W        W45984  20.709  10.374   7.729  0.4145 -0.0014  0.0194
14769W        W45985  19.115  16.478   0.018  0.1326 -0.0321  0.0891
14770W        W45986  27.167   6.058   1.920  0.0965  0.1113  0.2456
14771W        W45987  13.602  26.155   1.914  0.0167  0.1764 -0.2548
14772W        W45988   8.360   8.549   0.609 -0.0390  0.1094 -0.0553
14773W        W45989  26.744  24.673   9.858  0.3112  0.5180  0.1704
14774W        W45990  18.976  14.275   0.444  0.2406 -0.0734 -0.0044
14775W        W45991  20.845  21.458   9.405  0.1949  0.0403 -0.1122
14776W        W45992  24.091  19.336   8.529 -0.2863 -0.1450 -0.2632
14777W        W45993  12.161   8.259   1.915  0.4494 -0.2425  0.1642
14778W        W45994  23.032  23.216   9.941 -0.0504  0.0006 -0.1947
14779W        W45995  26.281  13.695   3.625  0.0351 -0.0678 -0.1335
14780W        W45996  17.976   9.346   0.847 -0.1850 -0.4719  0.0702
14781W        W45997   6.816  10.654   0.640 -0.0259 -0.0230  0.1049
14782W        W45998  22.100  22.524   9.385  0.3284 -0.1538 -0.1450
14783W        W45999   5.298  11.776   0.334 -0.0806  0.1251  0.1238
14784W        W46000  25.669  20.905   0.917  0.1939 -0.1782  0.0345
14785W        W46001  15.004  17.998   0.244 -0.1696 -0.1590  0.0790
14786W        W46002  23.829  19.370   7.723  0.2082 -0.0478 -0.0780
14787W        W46003   8.312  15.513   2.840 -0.0350 -0.0607 -0.0230
14788W        W46004   9.422  26.414   1.728 -0.2527  0.3590  0.1958
14789W        W46005   1.602   1.874   8.259  0.0515 -0.0018 -0.4807
14790W        W46006  11.524  20.216   0.363 -0.2038  0.1167 -0.0170
14791W        W46007   9.920  17.160   0.545 -0.2522 -0.2401 -0.0827
14792W        W46008   4.736   4.165   9.438  0.0599 -0.0910  0.0363
14793W        W46009  14.583   4.063   0.918 -0.1160  0.0427 -0.1464
14794W        W46010   3.918  19.147   1.083  0.1131 -0.1720 -0.2807
14795W        W46011   9.481   3.076   3.258  0.0668 -0.0588  0.3470
14796W        W46012  25.907  27.262   8.097 -0.0126  0.3327  0.0278
14797W        W46013   4.138   4.684   8.074 -0.1343 -0.0972  0.0681
14798W        W46014  19.392  10.593   0.091  0.2921 -0.2016  0.2092
14799W        W46015   1.334  21.051   3.291 -0.0825  0.1339  0.0605
14800W        W46016  24.400   3.457   8.964  0.1272  0.1632  0.1421
14801W        W46017  19.345  10.668   7.372  0.0538  0.2310  0.0605
14802W        W46018  16.990  25.599   0.695  0.1687 -0.0358 -0.2372
14803W        W46019   3.885  19.314   9.414 -0.2233 -0.0388  0.5719
14804W        W46020  22.634   4.520   1.951  0.1897  0.2707  0.1862
14805W        W46021  22.917  16.855   0.630 -0.3058 -0.1028  0.1893
14806W        W46022  14.171   3.954   8.543 -0.0574  0.0277  0.0280
14807W        W46023  19.202  16.272   2.103  0.1905  0.1311 -0.2217
14808W        W46024   9.762   8.653   8.346 -0.0729  0.2464  0.0400
14809W        W46025  23.118  26.369   8.269  0.4106 -0.1041 -0.0691
14810W        W46026  15.171  10.527   0.952  0.0180 -0.0285  0.0495
14811W        W46027   2.378   7.664   9.179 -0.1634 -0.1780  0.0321
14812W        W46028   5.932  16.406   0.916 -0.0948  0.0412 -0.2127
14813W        W46029  15.014  13.141   0.952  0.2570  0.4007 -0.0361
14814W        W46030   3.189  26.920   9.482 -0.0524 -0.2312  0.0395
14815W        W46031  16.349  23.876   0.978  0.1595  0.1527 -0.1601
14816W        W46032  15.073   5.980   4.008  0.0024  0.1077 -0.1944
14817W        W46033   3.845  16.367  10.523 -0.2589  0.0733  0.0618
14818W        W46034  27.315  14.827   2.784 -0.1779 -0.1700 -0.4142
14819W        W46035  27.125  13.887   0.256 -0.1808  0.0407  0.3240
14820W        W46036  19.364  25.375   2.393  0.1149  0.2964  0.1031
14821W        W46037  23.073  23.715   2.940  0.0553  0.0849  0.0200
14822W        W46038  18.420  15.283   8.452 -0.0411 -0.2087  0.0175
14823W        W46039  24.990   8.617   1.490 -0.0580  0.1373  0.2079
14824W        W46040  25.354  26.997   2.744  0.1484  0.1080  0.0672
14825W        W46041  26.300  11.658   1.715 -0.1571 -0.0007 -0.3501
14826W        W46042   6.261   8.122   8.267 -0.0220 -0.4304 -0.2704
14827W        W46043  18.077   1.860   8.604 -0.3258 -0.0670 -0.1282
14828W        W46044  13.496   2.053   3.257  0.0034  0.0377  0.1183
14829W        W46045  25.336   5.744   2.950 -0.0347  0.2652 -0.0996
14830W        W46046  23.798  26.958   0.541 -0.0410  0.1359 -0.0164
14831W        W46047  25.972   1.791   3.291 -0.1351 -0.1737  0.0908
14832W        W46048  25.445  12.618   9.829  0.0034  0.2099 -0.0119
14833W        W46049  11.981   5.349   2.306 -0.1143 -0.0069  0.0025
14834W        W46050  16.055  16.257   9.575 -0.1950 -0.4871  0.1866
14835W        W46051  19.998   0.994   2.113  0.3258 -0.2300  0.0588
14836W        W46052  19.299  18.026   1.284  0.0452 -0.1353  0.0878
14837W        W46053  16.497   3.378   9.897 -0.2212 -0.1064 -0.4002
14838W        W46054  17.100  27.243   2.929  0.0837 -0.1522  0.1561
14839W        W46055  20.992  14.988  10.082 -0.3035 -0.2340  0.1599
14840W        W46056  20.743  20.610   9.106 -0.1758  0.2110 -0.2748
14841W        W46057   5.817  18.805   8.135  0.0011  0.0738  0.2258
14842W        W46058  12.376  23.145   2.513 -0.1468  0.0480 -0.1129
14843W        W46059   6.594   6.753   2.402  0.1182  0.0954  0.0595
14844W        W46060   4.494  14.584   9.969 -0.0529  0.0545 -0.3965
14845W        W46061   1.855   7.231   1.294 -0.3051  0.1629 -0.1123
14846W        W46062  11.321   4.578   1.425  0.1218 -0.4622  0.2332
14847W        W46063  11.780  22.357   1.648 -0.1584 -0.0143  0.1452
14848W        W46064  21.218  16.801  10.127 -0.0391 -0.1225  0.0404
14849W        W46065  23.871   1.273   1.042  0.1166  0.0328  0.1114
14850W        W46066  19.143  13.027   0.676 -0.1584  0.2587 -0.1107
14851W        W46067  10.103  13.308   2.269 -0.0866  0.1154 -0.0368
14852W        W46068  25.144  26.325   7.485 -0.0361 -0.1768  0.1985
14853W        W46069   1.256  20.649   3.714 -0.3020 -0.0581  0.2523
14854W        W46070  20.377   7.635   3.500 -0.2613 -0.3206  0.0266
14855W        W46071  12.912  25.155   0.692  0.0006 -0.0126  0.0263
14856W        W46072  12.149   8.242   3.514  0.0064  0.4001  0.0323
14857W        W46073  15.174   0.030   1.657 -0.0885  0.2300 -0.2019
14858W        W46074  10.265   8.463   8.231  0.0479 -0.1031 -0.0804
14859W        W46075   0.653  19.506   3.019  0.0881 -0.1499  0.0363
14860W        W46076  24.359  22.474  10.446  0.0652 -0.1477  0.1391
14861W        W46077  12.819  14.950   2.384 -0.0107 -0.1044 -0.1413
14862W        W46078  24.425  20.370  10.310  0.0499  0.0244  0.1767
14863W        W46079   7.073  15.148   7.500 -0.2516  0.1815  0.1624
14864W        W46080  13.004  13.304   2.732  0.3738  0.1989  0.0828
14865W        W46081  17.530  19.743   1.330  0.3473  0.0142  0.2035
14866W        W46082  18.908  18.206   8.491  0.0239  0.0949 -0.0229
14867W        W46083  25.094   2.913   0.257 -0.0091  0.1928  0.0592
14868W        W46084   0.562  15.911   1.259 -0.0954  0.0607 -0.1835
14869W        W46085  11.868  24.717   0.650  0.3111  0.1212 -0.2073
14870W        W46086   9.221  22.652   2.640 -0.2214  0.2591  0.0348
14871W        W46087   5.068   6.843   7.704  0.2198  0.0316 -0.1411
14872W        W46088  27.027   2.372   0.318  0.3855  0.2617 -0.0386
14873W        W46089  11.277   8.680   0.817  0.0824  0.1091  0.1110
14874W        W46090  19.205  18.027   9.368  0.1507  0.0456  0.0296
14875W        W46091   7.938   6.381   7.748  0.2065  0.3043 -0.0372
14876W        W46092  13.538  12.126   3.158 -0.1998  0.0778 -0.1336
14877W        W46093  10.128  21.662   0.348 -0.1536  0.1273 -0.0337
14878W        W46094  27.525  12.316   1.789 -0.2826  0.2299 -0.3123
14879W        W46095  26.413   5.977  10.148 -0.2491 -0.4726  0.1600
14880W        W46096   5.464   6.448   9.697 -0.1622 -0.2310 -0.3628
14881W        W46097  25.819  22.924   8.254  0.1761 -0.2416 -0.2894
14882W        W46098  10.580  15.748   2.870  0.1594 -0.0870 -0.4410
14883W        W46099  17.807  14.395  10.364  0.0492  0.0140  0.3675
14884W        W46100  20.827   8.833   2.055 -0.2077  0.2122 -0.3174
14885W        W46101  15.885  17.168  10.373 -0.0347  0.1232 -0.1480
14886W        W46102  14.720  23.440   3.353  0.0734 -0.0073 -0.1187
14887W        W46103  11.674  14.120   2.461  0.3342 -0.1524 -0.0610
14888W        W46104   0.664  23.366   8.240  0.1416 -0.1742 -0.0041
14889W        W46105  12.435  12.138   0.163  0.1898  0.0843  0.3896
14890W        W46106   5.190  16.540   8.794 -0.4085 -0.0865 -0.1461
14891W        W46107  20.211  12.609   3.146  0.1398 -0.2187 -0.1633
14892W        W46108  15.354   0.704   1.797 -0.0297  0.0963  0.2975
14893W        W46109  22.935  22.456   2.539 -0.1472  0.0507 -0.0039
14894W        W46110   9.182   2.356   8.862  0.0294 -0.3717  0.0130
14895W        W46111   0.946  10.307   0.674  0.1960  0.0388  0.1531
14896W        W46112   4.927  26.075   3.563  0.1511  0.2029 -0.0157
14897W        W46113   6.582  17.151   0.892 -0.1269 -0.1247 -0.1142
14898W        W46114   4.662  16.467   9.383  0.0650 -0.0271  0.1910
14899W        W46115  27.530   9.920   7.468  0.1036 -0.2065 -0.0175
14900W        W46116   4.163  18.917   1.865 -0.0628 -0.1618 -0.1441
14901W        W46117   7.811   3.660  10.204  0.0384  0.0117 -0.4235
14902W        W46118  12.496  19.665   7.304  0.0832  0.0106  0.2095
14903W        W46119   9.541   1.120   2.765  0.1329 -0.1612  0.4018
14904W        W46120   0.095  10.627   1.837  0.0775 -0.1614  0.0003
14905W        W46121  27.016  14.974   0.012  0.0488  0.0513  0.1641
14906W        W46122   1.349  14.446   0.614 -0.0909  0.0273  0.1330
14907W        W46123  16.562   5.433   1.253  0.2768 -0.2299 -0.2860
14908W        W46124  26.187  21.761   8.819  0.0440 -0.0063  0.4664
14909W        W46125   1.729  15.768   0.427 -0.3905  0.1828 -0.1918
14910W        W46126  10.871  20.106   8.477 -0.0966 -0.2739 -0.0139
14911W        W46127  13.450   3.446   2.626 -0.0986 -0.1997  0.0813
14912W        W46128   6.716  19.803   8.496 -0.1157  0.2835  0.2026
14913W        W46129  23.448  20.438  10.316  0.2500  0.0167 -0.0293
14914W        W46130  16.435  14.625   1.800 -0.2423 -0.0787  0.2841
14915W        W46131   4.572  25.046   4.016 -0.1388 -0.1137  0.1068
14916W        W46132  12.500  16.254   8.472 -0.1169  0.0143 -0.4201
14917W        W46133  12.607  10.136   0.298  0.1201  0.2070 -0.1693
14918W        W46134  23.384  24.304   3.134 -0.1505 -0.2202 -0.0106
14919W        W46135  16.136  18.986   9.759 -0.1361  0.0744 -0.1596
14920W        W46136   4.364  17.456   2.117 -0.0293  0.1315  0.2419
14921W        W46137  10.173  23.966   2.397  0.1652 -0.1674  0.1527
14922W        W46138   5.125  12.751   9.982  0.0232 -0.2929 -0.0130
14923W        W46139  11.640  24.326   0.238 -0.1991  0.1122 -0.0213
14924W        W46140  11.544  20.552   6.876 -0.3324 -0.4860 -0.1007
14925W        W46141  14.444   4.593   3.666 -0.1475 -0.0277  0.0116
14926W        W46142  10.852  11.528   7.870 -0.2606 -0.3500  0.0663
14927W        W46143   0.921  14.269   8.322 -0.0085 -0.2034 -0.2370
14928W        W46144  10.515  15.127   1.217  0.1106  0.2214 -0.0025
14929W        W46145  18.308  10.581   9.251  0.0739 -0.0435 -0.1692
14930W        W46146   4.940  19.584   0.159  0.0162 -0.1611 -0.3053
14931W        W46147  15.398   9.660   0.222  0.0140  0.2098 -0.1089
14932W        W46148  17.780  22.745   0.015 -0.1651  0.0993  0.0232
14933W        W46149  23.085  22.129   0.087  0.1426  0.0973  0.3073
14934W        W46150  26.911  19.816   9.425 -0.3673  0.1952  0.0027
14935W        W46151  25.546  10.226   1.753  0.0633  0.0065 -0.3175
14936W        W46152  21.369  12.066  10.036  0.0827  0.1980 -0.0235
14937W        W46153  24.919  23.576   9.670 -0.1018 -0.3791 -0.2517
14938W        W46154  11.591   2.901   1.211  0.0074  0.0678  0.2508
14939W        W46155   3.191  10.532   0.139  0.0616 -0.1118 -0.4277
14940W        W46156  26.735  16.742   9.208  0.2887 -0.0493  0.1858
14941W        W46157   8.088  15.006   0.082  0.2531  0.0267 -0.1059
14942W        W46158  13.478  16.868   1.246  0.1431 -0.1682 -0.2594
14943W        W46159  17.353  22.035   8.040 -0.1231  0.4735  0.0035
14944W        W46160  16.429   4.392   9.706  0.2438 -0.1395 -0.0819
14945W        W46161  17.107   1.424   8.871  0.1595 -0.2726  0.1647
14946W        W46162  15.171  18.433   1.656 -0.0894  0.0743  0.3075
14947W        W46163  24.968  27.193   1.757 -0.0323 -0.1588 -0.2767
14948W        W46164  11.906  12.294   3.519  0.1130  0.0558 -0.1879
14949W        W46165   9.435   6.065   3.789 -0.1652 -0.4572 -0.0212
14950W        W46166   2.132  19.512   9.133  0.1127 -0.0500  0.1606
14951W        W46167   4.542   8.579   7.276  0.1310 -0.0455  0.1464
14952W        W46168  10.029  18.580   2.594 -0.0267 -0.1856 -0.1354
14953W        W46169   8.318  11.395   1.502  0.1691 -0.0960 -0.3362
14954W        W46170  10.863  14.542   2.503  0.1854  0.0564  0.0802
14955W        W46171  12.572  15.943   9.332  0.1168  0.1807  0.1496
14956W        W46172   2.435  22.123   8.347 -0.1964  0.0044  0.2309
14957W        W46173  15.990  12.770   1.174 -0.3006 -0.1378 -0.2926
14958W        W46174  11.563  26.009   1.043  0.0999 -0.0615  0.0571
14959W        W46175  22.662   3.681   0.227  0.0373 -0.1062 -0.2210
14960W        W46176  16.311  13.334   2.511  0.0543 -0.2361 -0.0100
14961W        W46177   6.238  16.947   9.934 -0.1152  0.1087  0.0788
14962W        W46178  14.524   8.563   3.891  0.1486  0.1220  0.2907
14963W        W46179  24.669   8.535  10.045 -0.1101 -0.2007  0.0689
14964W        W46180  24.126   1.355   2.915  0.1678 -0.2479 -0.1094
14965W        W46181  26.214  20.155   2.615 -0.0228  0.2416  0.1664
14966W        W46182   5.443  21.534   0.039 -0.2187  0.2250 -0.0762
14967W        W46183  19.826   5.429   2.923 -0.4019 -0.2295  0.1838
14968W        W46184  19.019  11.295   3.560  0.1583  0.0571  0.1565
14969W        W46185  24.247  23.998   2.117  0.0935 -0.0025  0.1924
14970W        W46186  21.172  21.274   8.408 -0.0362 -0.0134  0.0171
14971W        W46187  14.330  17.016   1.646 -0.2451  0.0601  0.2809
14972W        W46188   8.720  27.214   9.074  0.0292 -0.2122 -0.1295
14973W        W46189  20.112  16.000  10.255 -0.0592  0.0541 -0.0844
14974W        W46190  11.368  24.284  10.273 -0.0883 -0.2680  0.0050
14975W        W46191  16.183  16.654   9.120 -0.2693  0.1564  0.0105
14976W        W46192   4.237  18.196   3.211  0.1038  0.1838  0.1360
14977W        W46193  12.483  22.378   2.162 -0.2793 -0.2412 -0.0556
14978W        W46194  20.773   9.580   0.665 -0.1181 -0.4290  0.2748
14979W        W46195  25.103  20.245   3.356  0.2002  0.1090  0.0910
14980W        W46196  19.791  20.402   8.308 -0.0393  0.0503  0.0378
14981W        W46197   5.046   5.020  10.533 -0.1394 -0.1996  0.1515
14982W        W46198  23.403   9.270   7.788 -0.1333 -0.1571  0.0234
14983W        W46199   4.203  13.958   0.867 -0.0778  0.2834  0.1384
14984W        W46200   5.380  18.792   8.491 -0.0622  0.1681  0.3058
14985W        W46201  19.153   0.341   3.155  0.1815  0.0818  0.2021
14986W        W46202  23.954  12.065   0.460  0.0629  0.1175  0.0536
14987W        W46203  11.067   2.279   9.450 -0.0737  0.0912 -0.2628
14988W        W46204   0.184   8.651   0.007 -0.0716  0.0071  0.1575
14989W        W46205   0.930   1.202   9.951  0.2178 -0.0482 -0.2824
14990W        W46206  26.313  15.526   9.808  0.1113 -0.0164 -0.1521
14991W        W46207  24.361   2.132   8.223 -0.1054  0.0238  0.3184
14992W        W46208   8.319  10.553   8.331  0.1643 -0.4179 -0.1168
14993W        W46209   2.796  11.784   9.005 -0.1926 -0.2228 -0.1366
14994W        W46210  12.648   0.857   1.727 -0.2689 -0.1511 -0.0455
14995W        W46211  25.359  24.635   8.727  0.2161 -0.0165  0.1180
14996W        W46212  15.796  13.240   0.382 -0.1473  0.0055 -0.1253
14997W        W46213   7.507   8.465   0.713 -0.0066 -0.1428 -0.1172
14998W        W46214   8.066   9.368   9.627 -0.2763 -0.1487 -0.0450
14999W        W46215  15.671   4.834   2.297 -0.0152 -0.0186  0.2184
15000W        W46216   0.539  18.698   3.336  0.1442 -0.1025 -0.0411
15001W        W46217   6.350  19.069  10.444  0.2034 -0.2777  0.1543
15002W        W46218  24.951  27.265  10.335 -0.1219  0.3390  0.1284
15003W        W46219  17.075  10.386  10.409 -0.0201  0.1775 -0.2112
15004W        W46220   8.115  25.209   1.800 -0.0664  0.0620  0.0027
15005W        W46221  23.617   3.685   2.327 -0.4023 -0.2022 -0.1188
15006W        W46222  27.614  24.227   8.462  0.3166  0.0054  0.0312
15007W        W46223  26.717  22.979   3.235 -0.2687 -0.2558 -0.0429
15008W        W46224  24.306   2.770   9.581 -0.2221 -0.0275 -0.2826
15009W        W46225   3.838  27.318   0.471 -0.1316 -0.0189 -0.1856
15010W        W46226   0.455  14.208   0.740 -0.2655 -0.0639 -0.1966
15011W        W46227  15.843  23.741   1.019  0.1659  0.1198 -0.3178
15012W        W46228   1.766  27.402  10.315  0.1014 -0.4394 -0.0438
15013W        W46229  12.288  11.937   1.851  0.2180 -0.5043  0.1263
15014W        W46230  11.750   2.248   8.127 -0.1126  0.0190 -0.0538
15015W        W46231  13.098   1.479   0.377  0.0143  0.1651  0.1713
15016W        W46232   4.722  21.633   3.389 -0.1240  0.2693 -0.3071
15017W        W46233  14.458  12.450   7.991  0.1168  0.0107 -0.1667
15018W        W46234  27.019  11.520   0.529  0.0616 -0.0522 -0.1881
15019W        W46235   3.063  11.498   1.120  0.1838  0.2629  0.3153
15020W        W46236   4.509   2.846   1.214 -0.1349 -0.0598 -0.1849
15021W        W46237  10.566   5.594   8.412  0.1314  0.2988 -0.2021
15022W        W46238   2.773   8.142   8.697  0.0845 -0.2491  0.0810
15023W        W46239  21.207   9.185   2.248 -0.3206  0.3212  0.2946
15024W        W46240   6.639  23.070   3.381  0.1302 -0.3206 -0.0489
15025W        W46241  21.309  27.396   1.168 -0.2575  0.3252 -0.0252
15026W        W46242   1.593   3.639   8.484  0.1381  0.3535  0.0667
15027W        W46243  15.574  10.411   0.428 -0.4020  0.0655  0.1860
15028W        W46244   6.261   4.188   9.608  0.0667 -0.0266 -0.0391
15029W        W46245  25.096  16.181   9.582  0.2823  0.0668 -0.2329
15030W        W46246  27.380  25.642   9.919 -0.0491 -0.3466  0.1475
15031W        W46247  24.521   8.515   7.643 -0.2648  0.1078 -0.2061
15032W        W46248  10.911  16.430   8.047 -0.3363  0.1808 -0.1330
15033W        W46249  16.056   2.461   3.848  0.0607  0.3175 -0.0222
15034W        W46250  13.749   9.472   0.909  0.0475 -0.0753  0.0685
15035W        W46251  19.335   0.414   8.980  0.1515 -0.1448 -0.0159
15036W        W46252  14.252  26.131  10.324  0.0966 -0.2964 -0.1852
15037W        W46253  26.975   6.549   8.284 -0.0943  0.0277 -0.1248
15038W        W46254  23.915  10.542   9.376 -0.0495  0.0577 -0.0149
15039W        W46255  24.760   0.849   1.255 -0.0204 -0.0827 -0.2434
15040W        W46256   2.689  11.880   1.473 -0.0786 -0.0298  0.1636
15041W        W46257  25.699  18.163   1.578 -0.2637  0.2705  0.1602
15042W        W46258  25.627  21.878   7.568  0.4482  0.2916 -0.5234
15043W        W46259   2.812   6.881   0.560 -0.1259 -0.1361 -0.2149
15044W        W46260   3.369  13.426   8.559  0.2224 -0.1575 -0.1545
15045W        W46261  19.779  18.579   1.758 -0.1023  0.1586  0.1632
15046W        W46262  10.148   9.496  10.273  0.0816 -0.0517 -0.0264
15047W        W46263   0.915  14.190   1.016  0.0382 -0.1537  0.0187
15048W        W46264  19.475   0.659   7.561  0.0406 -0.0724 -0.1440
15049W        W46265  18.440  17.278   2.780  0.2736 -0.1340  0.2186
15050W        W46266   7.112   6.271   8.340  0.1605  0.1236  0.0024
15051W        W46267   2.317   6.325   0.397  0.0356 -0.0300 -0.0844
15052W        W46268  26.553   6.245   3.348  0.1029 -0.1025  0.1821
15053W        W46269   4.708   6.007   2.615  0.1045  0.1191 -0.3238
15054W        W46270   2.005   7.412   8.550  0.0204 -0.0477 -0.0598
15055W        W46271   4.534  10.817   0.071  0.4580 -0.2489 -0.0552
15056W        W46272  25.617  24.483   0.329 -0.3377 -0.0282  0.3413
15057W        W46273  16.279  15.019   8.373 -0.4031  0.2948  0.4211
15058W        W46274  25.257  16.452   2.520  0.1687  0.0648  0.2495
15059W        W46275   1.022  13.608   7.706  0.0169  0.2816  0.0543
15060W        W46276  14.080  26.889  10.411  0.0360  0.1410  0.1819
15061W        W46277  14.754   5.472   1.082  0.2477  0.1092  0.1041
15062W        W46278  13.068   9.681   3.428 -0.2605 -0.3580  0.0162
15063W        W46279  16.218   1.691   9.532 -0.1555  0.1455 -0.0420
15064W        W46280  14.857   5.448   2.647  0.0760 -0.0889 -0.0015
15065W        W46281  19.105  25.824   7.687  0.2587  0.1272  0.0103
15066W        W46282  25.570  25.279   8.474 -0.1112  0.3283  0.0410
15067W        W46283  12.185   2.033   1.426  0.1336  0.0324  0.2815
15068W        W46284  24.631  11.837   2.506  0.0311 -0.1682  0.0107
15069W        W46285   0.753   0.117   0.377  0.0018  0.1162  0.1041
15070W        W46286  15.720   2.551   3.456 -0.2807 -0.0918 -0.0185
15071W        W46287   0.443  14.344   8.575  0.1207  0.1232 -0.1731
15072W        W46288   9.950  16.080   0.722 -0.0606  0.3098 -0.0117
15073W        W46289  24.652  11.109   9.103 -0.3890  0.4606  0.1470
15074W        W46290  18.467   9.221   1.033  0.1825 -0.0533 -0.2954
15075W        W46291  20.977  16.112   7.954  0.1282  0.1102 -0.0122
15076W        W46292  20.165  22.525   8.767 -0.1294 -0.0002 -0.1485
15077W        W46293   7.342  25.304   3.221  0.0480 -0.2768  0.0149
15078W        W46294  17.900   0.894   2.824  0.0594  0.0987 -0.1984
15079W        W46295  16.863  17.312   3.629  0.1659 -0.0109 -0.0991
15080W        W46296   4.264  19.095   0.173  0.0421  0.0256 -0.1235
15081W        W46297  13.966  23.880   7.856  0.0728  0.1331 -0.1154
15082W        W46298  20.358   6.994  10.026  0.1541 -0.0177  0.2470
15083W        W46299  18.572  25.722   7.716 -0.0933 -0.1088  0.0362
15084W        W46300  18.937  23.023   0.864  0.1240 -0.0036  0.2040
15085W        W46301   6.287  20.454   8.445  0.2125  0.1499  0.0079
15086W        W46302   3.310   5.301   8.576 -0.2027 -0.1103  0.4789
15087W        W46303   2.791  21.490   9.224 -0.1767 -0.1406 -0.3219
15088W        W46304  19.087  26.284   8.639 -0.0263  0.0529 -0.1574
15089W        W46305  10.608  22.276  10.226 -0.0854  0.2188 -0.0679
15090W        W46306   5.591  24.617   9.840  0.2317 -0.1425 -0.4069
15091W        W46307   6.599  20.033   1.453  0.0251  0.0831  0.2234
15092W        W46308   9.679   5.710   2.347 -0.3317 -0.2205  0.0096
15093W        W46309   6.475   9.261   3.026  0.3356 -0.2213  0.0180
15094W        W46310  11.854  19.955   8.521 -0.0965 -0.1683 -0.1209
15095W        W46311   6.492  17.836   0.695  0.1026 -0.2383  0.2848
15096W        W46312   4.571  17.900   3.035 -0.0301  0.0590  0.0966
15097W        W46313  16.339  27.589   2.874  0.0799  0.0342  0.0822
15098W        W46314   6.110   7.801   2.879 -0.0256  0.2752 -0.1418
15099W        W46315   3.937  25.558   8.282  0.0369  0.1990  0.0206
15100W        W46316   9.222  21.508   0.527 -0.2752 -0.2726  0.2174
15101W        W46317   5.543   5.107   8.300 -0.0693 -0.0667 -0.3207
15102W        W46318  24.713  17.797   8.459 -0.0250 -0.0376 -0.2127
15103W        W46319  25.295   9.124   1.249 -0.0483  0.1202 -0.2317
15104W        W46320   6.219   9.290   8.892 -0.4973  0.1163  0.0879
15105W        W46321  23.305   2.503   0.354  0.0795 -0.1494  0.2446
15106W        W46322  22.931  24.644   8.510 -0.4179  0.3386  0.1927
15107W        W46323  17.014  14.411   9.165  0.2180 -0.0290 -0.0220
15108W        W46324  10.525  17.835   0.904 -0.0129 -0.0476 -0.2801
15109W        W46325   3.560  20.567   7.465  0.2983 -0.5529  0.1484
15110W        W46326   5.997  26.605   7.885 -0.0629 -0.1242 -0.0701
15111W        W46327  13.035  20.986   1.778  0.0757 -0.2224 -0.0538
15112W        W46328  24.807  11.214   2.885 -0.1572 -0.2782 -0.1682
15113W        W46329  25.301   9.091  10.295 -0.2589  0.1819 -0.0182
15114W        W46330  17.108   7.377   0.068 -0.0646  0.2526  0.0735
15115W        W46331   7.779   4.015   1.597 -0.3818 -0.3159  0.0423
15116W        W46332  17.595  19.179   3.598 -0.0391 -0.2535 -0.0368
15117W        W46333  18.069  21.778   0.179  0.0242 -0.1473  0.1255
15118W        W46334   8.005   1.337   9.835  0.4621  0.0678  0.3391
15119W        W46335   1.016   4.744   1.697  0.0472  0.0372  0.0470
15120W        W46336  24.357   1.762  10.326  0.1452 -0.0451 -0.0957
15121W        W46337  27.293  24.699   0.429  0.2156  0.0597 -0.0795
15122W        W46338   1.344  10.258   9.728 -0.2049  0.0175  0.1981
15123W        W46339  26.720  13.275   0.852  0.1161  0.1849 -0.0580
15124W        W46340  27.413  22.807   0.845  0.0069  0.0220  0.3342
15125W        W46341  25.190   1.692   8.194 -0.1022  0.3047  0.2187
15126W        W46342   2.539  11.413   1.271 -0.1186 -0.1592 -0.1703
15127W        W46343   5.657  21.650   8.309 -0.1230 -0.0026 -0.1813
15128W        W46344  21.838   9.092   1.574  0.1780  0.1326  0.1490
15129W        W46345  22.696  14.821   2.327  0.2101  0.2883 -0.1072
15130W        W46346  22.766  12.738   9.876 -0.1829 -0.2217 -0.1215
15131W        W46347  14.482  17.396  10.178  0.2828  0.2644 -0.0642
15132W        W46348  17.399  10.960   1.766 -0.1650  0.1676 -0.2737
15133W        W46349  23.933  10.607   8.835 -0.2484  0.1579 -0.1576
15134W        W46350   2.578  17.155   3.097 -0.0828  0.0746 -0.0064
15135W        W46351   2.273   1.561   8.794  0.3181 -0.1838  0.1470
15136W        W46352   4.171  14.754   1.779  0.1128 -0.0792 -0.3369
15137W        W46353  22.582  22.055   3.164 -0.2526  0.2359 -0.3399
15138W        W46354  12.749   2.907   3.246 -0.2309 -0.0662 -0.1800
15139W        W46355   2.350   3.394  10.495  0.0932  0.1847  0.0805
15140W        W46356  11.212   2.393   3.042 -0.0873  0.2495  0.5002
15141W        W46357  20.822   8.966   9.039  0.2536  0.1730 -0.1849
15142W        W46358  16.407   9.873   8.911  0.2092  0.1992 -0.3050
15143W        W46359  20.495  13.091   8.367 -0.0020  0.1423 -0.0741
15144W        W46360  17.052  21.733   2.485 -0.3290 -0.1537  0.4327
15145W        W46361  11.654   4.544   2.364  0.1815  0.1491  0.3466
15146W        W46362  13.874  11.787   8.381  0.2052 -0.0226  0.0688
15147W        W46363  18.623   8.808  10.202 -0.3208 -0.2091  0.2338
15148W        W46364  25.471   6.405   8.439  0.0036 -0.0151  0.1127
15149W        W46365  10.316  10.246   8.820 -0.2095 -0.2796 -0.1226
15150W        W46366  18.018  22.253   2.175  0.1781 -0.0157  0.1602
15151W        W46367  26.914   9.693   1.240  0.6096 -0.2197 -0.2200
15152W        W46368  18.959  19.710   1.489 -0.0297 -0.0240 -0.0576
15153W        W46369   0.182  27.590   9.656 -0.1936 -0.0505  0.1184
15154W        W46370  13.370  20.415   2.708 -0.0925  0.1678 -0.1134
15155W        W46371  10.815  13.866   0.602  0.0177 -0.1620  0.0331
15156W        W46372   5.232  24.899   8.616  0.0730  0.3779 -0.1525
15157W        W46373   2.033  16.668   0.787  0.3003  0.0989  0.1253
15158W        W46374  21.372  22.540   8.090 -0.4782 -0.1518 -0.1355
15159W        W46375  24.251   8.694   2.436 -0.0032  0.0584 -0.0801
15160W        W46376  19.630  26.235   3.455  0.2798 -0.0268 -0.0606
15161W        W46377   6.121  20.325   0.624  0.0111 -0.0551  0.1594
15162W        W46378  16.516  22.510   3.030  0.3339 -0.3506 -0.2364
15163W        W46379   2.655  12.592   7.375  0.2422 -0.0377 -0.0336
15164W        W46380  11.231  13.429   3.107 -0.0218 -0.0898  0.1998
15165W        W46381   2.301  10.691   9.702 -0.1511  0.2789  0.0684
15166W        W46382  15.675  14.185   0.823  0.0575 -0.0016  0.0582
15167W        W46383  18.606  19.887   8.160 -0.1434 -0.0148  0.3448
15168W        W46384  20.027  13.663   2.258  0.0091  0.0425 -0.2114
15169W        W46385  22.910   1.354   9.877  0.1157  0.0348 -0.0991
15170W        W46386  20.912   6.245   0.105 -0.2478  0.0567 -0.0018
15171W        W46387   1.693   1.852   0.444 -0.4234 -0.0180 -0.1134
15172W        W46388  15.827   1.755   1.057 -0.0040  0.1771 -0.0007
15173W        W46389  20.902   0.057   8.864 -0.1415 -0.0083 -0.1865
15174W        W46390   2.718  24.950  10.240 -0.2611 -0.3992 -0.1553
15175W        W46391   1.375  12.379   7.480  0.1146 -0.0569 -0.1240
15176W        W46392  20.910  26.603   8.514 -0.0860  0.1507  0.1097
15177W        W46393   6.440   5.899   2.262  0.0267 -0.2174 -0.0262
15178W        W46394  17.222  21.457  10.256  0.0697 -0.1687 -0.0379
15179W        W46395  12.346   2.440   3.977  0.1072 -0.0384 -0.0289
15180W        W46396   9.419  10.230   2.771 -0.2828  0.1883 -0.0198
15181W        W46397  10.242  23.972   7.548 -0.0694 -0.2181 -0.2171
15182W        W46398   1.468  26.150   1.709 -0.0945 -0.2197 -0.0915
15183W        W46399  10.755   8.539   8.778  0.3393 -0.2176  0.0141
15184W        W46400   2.657   1.868   3.038  0.0532 -0.1865  0.1545
15185W        W46401   3.004  16.552   9.065 -0.1333  0.1795 -0.0859
15186W        W46402  26.083  24.052   8.664 -0.0252 -0.0820  0.0185
15187W        W46403   8.352  17.438   9.574  0.6218 -0.0454 -0.0806
15188W        W46404  14.366  24.365   1.572 -0.0260 -0.0588  0.1432
15189W        W46405  18.480  26.182   7.946  0.0662  0.1780  0.2845
15190W        W46406  23.721  26.122   1.415 -0.3621 -0.0396  0.2746
15191W        W46407  23.315  26.237   1.850  0.0240  0.1955 -0.3531
15192W        W46408   2.931   1.303   3.643 -0.0851  0.1442  0.1798
15193W        W46409  19.992  10.904   9.231  0.1195 -0.0939 -0.1376
15194W        W46410   3.890   2.318   1.276  0.0303 -0.0432 -0.0344
15195W        W46411   0.505   9.388   2.532 -0.3212  0.1116  0.0751
15196W        W46412  12.402  14.429   7.677 -0.2472 -0.1929  0.2195
15197W        W46413  24.376  26.076   0.451 -0.0202 -0.1343  0.0253
15198W        W46414  14.735  12.812   1.784 -0.1167  0.0825  0.5208
15199W        W46415  17.276  17.663   1.965  0.1169 -0.1049  0.0150
15200W        W46416  19.167  10.266  10.243 -0.4635 -0.1357  0.1858
15201W        W46417   6.121   8.569   2.642  0.0055  0.0731  0.1448
15202W        W46418   2.053   9.137   2.285  0.2607  0.0211  0.0231
15203W        W46419   6.140  26.265   7.549  0.2432  0.2010  0.1606
15204W        W46420  10.136   9.291   0.493  0.3287 -0.0565  0.0884
15205W        W46421   1.344  14.902   0.792 -0.2833 -0.3891  0.3748
15206W        W46422  16.300  23.048   9.579  0.1245  0.0658  0.1833
15207W        W46423  20.380   5.544   9.144  0.1882  0.1444  0.0146
15208W        W46424  16.742  26.259   8.096  0.2528  0.2793  0.2363
15209W        W46425   4.305   5.273   9.018 -0.0716 -0.1561  0.0628
15210W        W46426   7.360  11.450   9.454  0.1007 -0.1838  0.0931
15211W        W46427   6.458  24.412   2.390 -0.1247  0.0707  0.2234
15212W        W46428   6.580  20.635   8.712 -0.0790 -0.2679 -0.0890
15213W        W46429  23.064  13.908   1.451  0.1147  0.1270  0.0575
15214W        W46430   2.161  17.275   9.920 -0.1392  0.1609 -0.1094
15215W        W46431   3.321  27.173   9.077  0.1603  0.0535  0.0955
15216W        W46432   2.484  19.782   2.130 -0.0224 -0.1804 -0.3479
15217W        W46433  24.552   7.165  10.318  0.0936 -0.1642  0.1865
15218W        W46434  21.888  24.920   1.292 -0.0572  0.1760 -0.1193
15219W        W46435   5.542   5.150   3.448 -0.1949  0.3085 -0.0292
15220W        W46436  13.938   5.222   9.260  0.0139  0.1716  0.1412
15221W        W46437   9.217  22.621   0.426  0.1554  0.0099 -0.0246
15222W        W46438  21.883   4.614   8.767 -0.4673  0.4334 -0.0716
15223W        W46439  15.178   6.075   7.685 -0.2567  0.0156 -0.3777
15224W        W46440   4.233  14.370   7.610  0.3768  0.1930  0.1471
15225W        W46441   6.928  25.829   0.161 -0.2638  0.0846 -0.3551
15226W        W46442  25.090  17.328   0.172  0.1305  0.3546 -0.0622
15227W        W46443  26.347   6.902   2.629  0.0326 -0.1897 -0.1699
15228W        W46444   7.085  18.312   2.601  0.1124  0.2141  0.0285
15229W        W46445  16.693  13.864   2.403 -0.0950  0.0969 -0.2735
15230W        W46446  14.562  27.046   2.632 -0.3451 -0.0506 -0.0957
15231W        W46447   1.956   5.755  10.489 -0.3524  0.3680  0.3621
15232W        W46448   3.795   6.142  10.054 -0.0421  0.0642  0.0204
15233W        W46449   3.331  24.251   9.254 -0.3185  0.1107  0.0029
15234W        W46450   0.796  21.413   8.076 -0.2852 -0.1726 -0.3585
15235W        W46451  24.775   2.914   1.849  0.1902 -0.4150  0.1974
15236W        W46452  16.897  27.118   0.401 -0.0488 -0.0172  0.2527
15237W        W46453  25.891  22.324   0.054 -0.0984 -0.1411 -0.2417
15238W        W46454   9.341   2.198   1.021  0.1882 -0.1594 -0.1557
15239W        W46455   5.642  17.178   2.805 -0.1062  0.0582 -0.1404
15240W        W46456  19.619   5.612   1.794 -0.0708  0.0660  0.0707
15241W        W46457   3.412   4.584   7.353  0.0008  0.1533  0.1153
15242W        W46458  14.096   8.130   8.830 -0.0782 -0.0870  0.2016
15243W        W46459  18.446  11.535   2.498  0.2166  0.3557  0.1255
15244W        W46460   7.161   4.464   2.015 -0.2129 -0.0260  0.0074
15245W        W46461  27.345   4.761   0.112 -0.1764 -0.2078 -0.1319
15246W        W46462  17.956  26.934   1.648  0.0466 -0.0574  0.2159
15247W        W46463  19.368   9.017   2.629 -0.0329  0.1107  0.0088
15248W        W46464   5.918   3.109   3.117  0.1177 -0.1084 -0.0921
15249W        W46465   4.454  10.362   9.859  0.1037  0.0903  0.0588
15250W        W46466   2.560  14.182   8.673  0.1617 -0.0703 -0.0576
15251W        W46467  17.743  15.183   1.260  0.0243  0.1880  0.2552
15252W        W46468  10.016   3.965   3.292  0.0154 -0.2670  0.1761
15253W        W46469  23.515  14.493   2.202 -0.1051  0.0086 -0.0964
15254W        W46470  17.830  25.988   1.654 -0.1298 -0.1323  0.0856
15255W        W46471  16.023  11.476   0.608 -0.1261  0.0167 -0.0672
15256W        W46472  16.967  11.796   7.799  0.2440 -0.0074  0.1129
15257W        W46473   4.965  25.571  10.222  0.1743 -0.0050  0.4963
15258W        W46474  13.430  21.364   1.762  0.2751 -0.0500 -0.1857
15259W        W46475   8.768  17.239   2.628 -0.0100  0.0104 -0.0297
15260W        W46476  12.478  19.486   8.612 -0.0078  0.0637 -0.0024
15261W        W46477  26.612   1.234  10.427 -0.2133 -0.0619  0.0577
15262W        W46478  18.228   7.842   2.435 -0.0062 -0.2935  0.0417
15263W        W46479   4.932   0.248   7.910  0.1466  0.0776  0.3053
15264W        W46480   9.241  10.733   2.030  0.0323 -0.0496 -0.3074
15265W        W46481  25.595  25.057   9.688  0.0426  0.2745  0.0930
15266W        W46482  12.625  24.989   3.337  0.0581 -0.0330  0.0465
15267W        W46483  10.859  24.902   7.856 -0.1447  0.1888 -0.0190
15268W        W46484  10.920  23.794   8.981  0.0969 -0.2471 -0.1988
15269W        W46485  12.758  19.352  10.290 -0.1179 -0.1499 -0.1293
15270W        W46486  19.748  12.342   8.248  0.0350 -0.0371  0.2190
15271W        W46487  27.426  14.352   2.926 -0.2434  0.0343 -0.2049
15272W        W46488  25.424  17.348   7.930 -0.0781 -0.2763  0.1165
15273W        W46489  16.612  27.139   3.085 -0.2127  0.1121 -0.2313
15274W        W46490   6.777   4.574   2.403 -0.2397 -0.1065 -0.0333
15275W        W46491   1.674  27.196   7.920 -0.2760  0.2181  0.1361
15276W        W46492  16.366  12.713   8.543 -0.0809 -0.0372  0.0622
15277W        W46493   6.206  10.073   2.754  0.1942 -0.0353  0.0401
15278W        W46494   8.093  10.343   2.000 -0.0359  0.1127 -0.2875
15279W        W46495  21.795  27.121   9.186  0.2508 -0.1416  0.2440
15280W        W46496  11.412   8.025   8.179 -0.1879 -0.4144 -0.1177
15281W        W46497  18.895   8.300   1.171  0.2872  0.2842  0.2414
15282W        W46498  11.880  23.488   0.214 -0.2288  0.2724  0.0407
15283W        W46499   9.800  21.054   8.599  0.0965  0.1588  0.0305
15284W        W46500  27.087   9.936   3.147 -0.0154 -0.2787  0.2228
15285W        W46501   4.101  25.650   0.468 -0.0676  0.1598  0.0370
15286W        W46502   2.662  15.339   7.754  0.1199  0.0798 -0.2189
15287W        W46503   6.415  10.405  10.059 -0.2815  0.0328 -0.2028
15288W        W46504  22.756  25.936   7.702  0.1682 -0.1941  0.1375
15289W        W46505  27.240   3.696   0.901  0.0187 -0.0290 -0.2714
15290W        W46506   5.338   6.749  10.158 -0.0777 -0.1366  0.1105
15291W        W46507   0.026   4.856   0.591  0.0858 -0.0194 -0.2076
15292W        W46508  11.965   0.580   0.203  0.0272  0.0671 -0.1399
15293W        W46509  27.471   7.860   7.852  0.0657  0.2030  0.1336
15294W        W46510  27.316  11.538   0.155  0.0827 -0.0064 -0.0744
15295W        W46511   1.876  17.889   0.675  0.5174  0.0291  0.1779
15296W        W46512  15.988  19.510   2.489 -0.0969 -0.1681  0.4593
15297W        W46513  12.537  17.108   2.792  0.1403 -0.0475 -0.0340
15298W        W46514   1.288   1.927  10.218  0.1469  0.1754  0.1785
15299W        W46515  24.246  12.531   2.531 -0.1390  0.1983  0.3151
15300W        W46516  16.021  18.738   7.849 -0.0571  0.1116 -0.0057
15301W        W46517  19.312  21.218   2.534  0.2039  0.0609  0.1407
15302W        W46518   2.433   8.434   1.590  0.1401  0.2680 -0.3218
15303W        W46519   8.917  16.594   8.009  0.0862  0.3520  0.1324
15304W        W46520   5.416  22.822   3.082 -0.1894  0.1613  0.3710
15305W        W46521   7.966  25.615   9.138 -0.0962 -0.0075  0.1557
15306W        W46522   5.322  10.504   2.165 -0.3400  0.0079  0.1341
15307W        W46523  12.248   1.244   2.148  0.1197  0.1008 -0.1416
15308W        W46524  16.654  25.086   2.681 -0.1787 -0.1482  0.0396
15309W        W46525  13.223  17.250   3.115  0.0170 -0.1459 -0.2364
15310W        W46526  11.487   7.496   8.335  0.3318  0.0241  0.2298
15311W        W46527  24.623  14.641   0.734  0.0233 -0.1154  0.0024
15312W        W46528  13.510  22.027   8.369  0.0841 -0.3162 -0.1509
15313W        W46529   6.656  13.551   7.888  0.1086 -0.0075 -0.0250
15314W        W46530  12.836  19.320   1.230  0.1044  0.0465  0.3099
15315W        W46531   5.484   7.385   9.180 -0.1161  0.1256 -0.2814
15316W        W46532  19.750  21.504  10.296 -0.3620  0.1597  0.0782
15317W        W46533  26.874   5.339   0.066 -0.3200  0.1541  0.2425
15318W        W46534   8.864  11.428   0.893 -0.1380  0.1760 -0.1437
15319W        W46535  25.273   9.526   8.468  0.1781 -0.0047  0.2192
15320W        W46536   8.316  18.474   2.916 -0.3897  0.4006  0.1098
15321W        W46537  20.879   0.881   3.050  0.1653  0.3710  0.3649
15322W        W46538  15.767   2.082   3.315  0.2166 -0.1157 -0.2345
15323W        W46539   1.997  14.422  10.247  0.1120 -0.0949  0.1777
15324W        W46540  16.840   6.564   9.508  0.1182  0.2425  0.2956
15325W        W46541  12.261   7.109   9.753 -0.2499  0.4640 -0.2639
15326W        W46542  18.636   1.572   2.118  0.0304  0.1538  0.1550
15327W        W46543  24.194   2.369   0.803  0.4573 -0.1491 -0.0197
15328W        W46544  10.624  15.333   8.437 -0.1390  0.1167  0.0571
15329W        W46545   9.965   9.144   0.026 -0.2731  0.3463  0.0951
15330W        W46546  20.712  20.833   8.304  0.1200 -0.2442 -0.0889
15331W        W46547  11.659  21.080   2.070 -0.0713 -0.0841  0.2498
15332W        W46548  25.870  25.016   0.578 -0.1677  0.0291  0.0803
15333W        W46549  21.783  22.230   7.992  0.1787 -0.1413  0.2538
15334W        W46550   5.341  18.377  10.403  0.0831 -0.0163 -0.0254
15335W        W46551  24.657  14.700   9.407 -0.1990  0.1493  0.2578
15336W        W46552   5.776  17.057   9.841 -0.0789 -0.2507 -0.0607
15337W        W46553  12.165  20.890   2.340 -0.3026 -0.0253 -0.0795
15338W        W46554  16.914  15.136   9.643 -0.0967 -0.1936  0.0749
15339W        W46555  24.474  10.516   9.883  0.0960  0.2355 -0.3543
15340W        W46556   2.455  14.479   8.257 -0.4260 -0.2181 -0.1668
15341W        W46557   1.092  19.972   8.012 -0.1848 -0.0736  0.1076
15342W        W46558  21.543  12.529   2.654  0.1171  0.4787 -0.3385
15343W        W46559   1.555  23.053   9.724 -0.2122 -0.2081  0.4315
15344W        W46560   0.602   0.487   7.859  0.1819  0.2735  0.3393
15345W        W46561  14.116   5.309   8.785 -0.0132  0.1385  0.0059
15346W        W46562   0.065  10.831   8.247  0.0410  0.0089  0.2526
15347W        W46563  13.044   7.026   3.293 -0.0466 -0.0708  0.4339
15348W        W46564   1.292  23.372   2.415 -0.1267 -0.0831  0.0588
15349W        W46565   4.239  22.606   8.074  0.0128 -0.4574 -0.2548
15350W        W46566  15.692  19.668   8.343  0.1811  0.4043  0.2197
15351W        W46567  10.796  26.711   3.882  0.0413 -0.0535  0.0467
15352W        W46568   3.891   6.009   3.068 -0.1793  0.1193  0.0739
15353W        W46569  19.314   0.361   0.372 -0.2203 -0.2136 -0.0718
15354W        W46570  23.768   4.922  10.124 -0.0159 -0.1256  0.1259
15355W        W46571   3.477   5.920   8.642 -0.1686  0.0448  0.2872
15356W        W46572   5.649  18.088   9.153 -0.1721  0.1699 -0.0691
15357W        W46573   9.378   4.492   0.733  0.0370  0.0555  0.0355
15358W        W46574  25.312   6.056   9.940  0.1450  0.0928  0.1744
15359W        W46575   2.498  17.899   8.379  0.0082 -0.2270 -0.0475
15360W        W46576  17.102   3.648   0.198  0.0119  0.1484 -0.3760
15361W        W46577   4.030   6.216   2.324 -0.2084  0.3136 -0.2524
15362W        W46578   3.622   4.998   8.313  0.0415 -0.0309 -0.2476
15363W        W46579  17.888  13.054   3.297  0.2283  0.0195 -0.0275
15364W        W46580  18.508  22.723   3.261  0.1469 -0.0231  0.0899
15365W        W46581  18.238  22.717   9.591 -0.1356  0.1174 -0.0854
15366W        W46582  14.631  19.320   2.597  0.0776  0.1776 -0.1577
15367W        W46583   3.579  23.693   8.017  0.0151 -0.1880 -0.0404
15368W        W46584   2.774   7.849   3.436 -0.0865 -0.1367  0.3518
15369W        W46585   2.704  14.677   9.477 -0.0725  0.1507  0.0569
15370W        W46586  14.123   0.854   2.120  0.4117  0.0747  0.5556
15371W        W46587  22.529  16.691   1.728  0.0403 -0.3699 -0.2807
15372W        W46588   3.569   6.400   8.402  0.5831  0.0803 -0.0867
15373W        W46589   0.907  14.264   8.807  0.0731 -0.0638 -0.3295
15374W        W46590  15.700   8.856   1.897 -0.1508  0.1220  0.1453
15375W        W46591  12.319   5.484   0.930  0.0424 -0.1882  0.0566
15376W        W46592  16.625   4.572  10.155  0.1406 -0.0183 -0.1807
15377W        W46593  26.971  17.272   0.496  0.1791  0.1364  0.2338
15378W        W46594  20.653  21.370   2.858 -0.2396 -0.5855  0.1951
15379W        W46595  19.043  20.901   2.993 -0.1396  0.1767  0.1952
15380W        W46596  23.173   4.422   3.085  0.0594 -0.1343 -0.2441
15381W        W46597  16.704  26.490   1.144 -0.0607 -0.0208 -0.0675
15382W        W46598   5.880   4.532  10.483  0.2919 -0.3089  0.2111
15383W        W46599   8.134  27.337   7.535  0.0694 -0.0586  0.0339
15384W        W46600   1.563  16.473   0.923  0.2801  0.2300  0.2794
15385W        W46601  18.180   8.441   9.971 -0.0338 -0.1688 -0.1297
15386W        W46602  21.343   9.646   0.815  0.0963 -0.0009 -0.5245
15387W        W46603  27.363   5.263   9.067  0.1442  0.2024  0.0686
15388W        W46604   0.579  16.138   9.209  0.0303 -0.0164 -0.0940
15389W        W46605  12.653  26.279   2.150  0.1467  0.1549  0.3743
15390W        W46606  23.846  19.207   1.194  0.0669 -0.2114  0.0701
15391W        W46607   8.293  23.956   0.114  0.1270  0.0481  0.1457
15392W        W46608  15.912  11.968   0.346  0.0821  0.0922  0.1111
15393W        W46609  17.009  17.462   2.646  0.2443 -0.0095 -0.0584
15394W        W46610  26.536  18.124   2.973 -0.3380 -0.3664  0.1456
15395W        W46611  10.601   2.302   1.949 -0.1372  0.0886 -0.0246
15396W        W46612   1.249  21.046   1.530  0.3555  0.2280 -0.1852
15397W        W46613  20.760  26.229   0.624 -0.3388  0.2482 -0.1668
15398W        W46614  14.192  19.484   7.999  0.1140 -0.0195  0.0728
15399W        W46615   8.828   1.456   8.449 -0.0746  0.1892 -0.0656
15400W        W46616   1.191   7.067   9.378  0.0091  0.0581 -0.0422
15401W        W46617   3.855  11.435   2.711  0.0815 -0.0512  0.0754
15402W        W46618  27.011   0.676   3.183  0.1291  0.2919 -0.2195
15403W        W46619   8.759   3.660   3.599 -0.2123 -0.0306 -0.1423
15404W        W46620  25.155  18.141   3.276 -0.1014 -0.1643  0.1152
15405W        W46621  25.156  17.714   9.643  0.1344  0.2092 -0.1038
15406W        W46622  25.107  14.549   2.313  0.0459  0.0511  0.0322
15407W        W46623   8.845  10.824   0.478  0.1526 -0.1734 -0.5120
15408W        W46624  14.175   9.191   9.956 -0.2674  0.0606  0.0443
15409W        W46625   9.936   3.607   8.461  0.0108  0.2535  0.2162
15410W        W46626   3.577   5.182   7.871 -0.1842  0.2929 -0.1363
15411W        W46627  16.080  26.278  10.127  0.0012  0.0832 -0.1033
15412W        W46628  16.483  14.237   2.129  0.0140 -0.1636 -0.1751
15413W        W46629   8.227   5.861   6.988 -0.3836 -0.3454 -0.2296
15414W        W46630  15.635  23.648   2.772 -0.3013 -0.3650  0.2481
15415W        W46631  15.105   7.468   8.006 -0.1647  0.1049 -0.3139
15416W        W46632  21.496   7.319   1.776 -0.1282 -0.0836  0.6353
15417W        W46633  27.458  12.789   1.740 -0.1645 -0.1877 -0.1177
15418W        W46634  26.931  22.558   9.678 -0.0011  0.2365  0.0211
15419W        W46635  21.493  23.629   3.196  0.0595  0.0714  0.1610
15420W        W46636  23.492  11.633  10.264 -0.0706 -0.4772  0.1551
15421W        W46637   6.984  11.183   9.257  0.0998 -0.3253  0.0424
15422W        W46638  21.996   5.808   2.152  0.0284  0.0185  0.3801
15423W        W46639  12.431  19.706   0.722  0.1202  0.0428  0.1097
15424W        W46640  17.741   9.865   3.035 -0.2984  0.1021 -0.5955
15425W        W46641   6.421   0.475   1.763 -0.3919  0.0317  0.0553
15426W        W46642  26.220  13.963   9.812  0.1570 -0.6005  0.0921
15427W        W46643   3.160  22.551   1.848 -0.2689  0.0554 -0.1247
15428W        W46644  24.809  25.597   2.575 -0.2674 -0.1069 -0.0230
15429W        W46645  10.542  13.957   9.847  0.0298  0.0270 -0.2540
15430W        W46646  13.729  20.831   0.957  0.0146 -0.0318 -0.1175
15431W        W46647   2.477   1.351   2.201 -0.2197 -0.1475 -0.0602
15432W        W46648  19.159  12.952   7.932 -0.2898 -0.0629  0.1845
15433W        W46649  20.423   2.584  10.002 -0.0122 -0.1172  0.2066
15434W        W46650  25.443   2.101   8.647  0.2613  0.0012  0.1351
15435W        W46651  20.923  10.910   7.800 -0.1688 -0.0753  0.0747
15436W        W46652  21.526  19.337   9.974  0.2018 -0.0021  0.2552
15437W        W46653  10.272  12.857   9.035 -0.2168 -0.1183  0.2650
15438W        W46654  17.234   9.928   8.949  0.0251  0.1806 -0.3113
15439W        W46655  21.637  11.462   7.327 -0.1981  0.3189  0.0096
15440W        W46656  24.431   7.247   8.305 -0.1088 -0.1366  0.2230
15441W        W46657  19.876  16.403  10.136 -0.5332  0.1083 -0.0339
15442W        W46658   8.619   6.800   2.732  0.3245  0.2683 -0.3431
15443W        W46659  27.617  20.809   1.650 -0.1884  0.0425 -0.0927
15444W        W46660  24.807  23.274   0.109  0.3444  0.0639 -0.2189
15445W        W46661   6.682   8.859   9.408 -0.0683  0.0942 -0.2122
15446W        W46662  26.160   8.404   8.518 -0.1592 -0.0794 -0.0670
15447W        W46663  17.772   3.781   9.515 -0.1839  0.1063 -0.1979
15448W        W46664  12.164  11.847   7.589 -0.1571 -0.3515  0.0355
15449W        W46665   7.473  13.414   0.595 -0.0440  0.3511 -0.2705
15450W        W46666  12.319  12.906   9.644 -0.0379  0.0644 -0.2131
15451W        W46667  11.207  11.568   1.757 -0.1163 -0.0550  0.0920
15452W        W46668   3.607  10.605   9.614  0.1837 -0.1104 -0.0517
15453W        W46669   9.163  21.046   8.029  0.1166  0.0207 -0.2347
15454W        W46670   8.139   1.047   2.665 -0.0003 -0.1478 -0.1873
15455W        W46671  19.717  24.737   9.550  0.1178  0.0211  0.0685
15456W        W46672   5.912  18.932   2.460  0.2265 -0.0580 -0.2674
15457W        W46673   8.941   9.912   2.425  0.3314  0.0270 -0.2079
15458W        W46674  23.150  27.389   2.234 -0.1048  0.0696 -0.0386
15459W        W46675   5.860  21.232   2.792  0.0448 -0.0805  0.0258
15460W        W46676   3.871   8.824   0.628  0.2800  0.0420  0.1217
15461W        W46677   8.921  23.989   3.378 -0.0808 -0.0362  0.0879
15462W        W46678  25.785  24.936   0.104 -0.3785  0.1216 -0.0112
15463W        W46679  14.805  24.289   4.049  0.1876  0.2556  0.0096
15464W        W46680   5.888   2.730   8.761 -0.1250 -0.0877 -0.1906
15465W        W46681   7.566  26.049   1.900  0.3213 -0.0479  0.4025
15466W        W46682  19.351  11.760   7.613  0.0998 -0.1541 -0.1645
15467W        W46683   8.328  26.780  10.004  0.2871 -0.0761 -0.1725
15468W        W46684   5.112  22.010   8.892 -0.0142 -0.2234 -0.0292
15469W        W46685   1.809  12.658   1.787 -0.1444 -0.0932  0.0519
15470W        W46686   6.609   7.007  10.299 -0.2387  0.3622 -0.0842
15471W        W46687   4.209  26.124   0.493 -0.0659  0.0389 -0.2220
15472W        W46688   6.623  10.943   8.845 -0.1203  0.0518  0.1857
15473W        W46689   3.358  20.380   0.863  0.0173 -0.0046  0.1544
15474W        W46690  24.932  26.453   9.999  0.3551 -0.2689  0.0079
15475W        W46691  12.252  24.693   9.261  0.0052 -0.0300 -0.1461
15476W        W46692   5.500  17.933   1.250 -0.0453 -0.1102 -0.0355
15477W        W46693   9.018   8.450   3.722 -0.2456  0.1172  0.2609
15478W        W46694  18.059  25.087   2.048  0.3133  0.0906 -0.2804
15479W        W46695  26.077  18.359   1.183 -0.2280  0.1049 -0.1327
15480W        W46696  16.501  10.263   0.583 -0.0305 -0.1316  0.0248
15481W        W46697   7.071  21.131   0.937 -0.1443 -0.1442 -0.4080
15482W        W46698   6.950  14.796   9.713  0.0140  0.2908 -0.0781
15483W        W46699   6.610   1.024   3.648 -0.1278 -0.0341  0.2039
15484W        W46700  17.784  13.938   9.852 -0.0647  0.1925 -0.0846
15485W        W46701  20.415  11.184   1.963 -0.1365  0.2481  0.2523
15486W        W46702  14.887  10.271   9.449 -0.2617 -0.2619  0.0030
15487W        W46703  16.384   3.716   7.991  0.1494  0.1654 -0.3420
15488W        W46704  19.227   7.194   9.043 -0.0502 -0.1635 -0.2645
15489W        W46705  13.366  14.006   1.471 -0.0259  0.0350 -0.0397
15490W        W46706  17.345   9.577   7.809  0.1366  0.0635  0.0060
15491W        W46707   3.580  24.696   9.903  0.1798  0.0809 -0.0283
15492W        W46708   8.160  17.183   0.434  0.3349 -0.0067 -0.0203
15493W        W46709  25.818  15.633   0.451 -0.3180  0.0334 -0.3014
15494W        W46710  22.540  20.706   0.020 -0.0086  0.0952 -0.2426
15495W        W46711   2.281  24.594   2.893 -0.1228 -0.2023 -0.0265
15496W        W46712  16.246  13.759  10.120 -0.1806 -0.1948  0.0017
15497W        W46713  15.243  14.923   1.620  0.2033  0.1313  0.1354
15498W        W46714   4.068  10.888   1.966 -0.0541  0.1433  0.0561
15499W        W46715   4.307  14.703   2.245  0.0113 -0.0647  0.1288
15500W        W46716  11.591  11.969   7.670 -0.1093 -0.1206  0.1361
15501W        W46717   9.796  25.761   2.514  0.2260  0.0096 -0.1429
15502W        W46718   7.092   9.847   8.043  0.2158  0.1779  0.2474
15503W        W46719   4.238   9.262   7.652  0.0125 -0.0599  0.2194
15504W        W46720  11.855  25.223   9.846  0.2996 -0.4055 -0.0816
15505W        W46721   4.685  14.076   7.456  0.0553  0.1076 -0.2777
15506W        W46722  19.293  24.779   2.320  0.2306  0.0353  0.0711
15507W        W46723  27.356   6.906   9.583  0.0582 -0.1759  0.1476
15508W        W46724   5.143  20.308   8.042 -0.0532 -0.0870  0.1613
15509W        W46725  24.443   3.562  10.078 -0.2399  0.3140  0.3292
15510W        W46726   0.496  24.415  10.061  0.4447 -0.4034  0.0603
15511W        W46727  14.717  22.504   2.977 -0.1949 -0.0014 -0.1843
15512W        W46728   9.263   2.991  10.095 -0.1719 -0.2896  0.0808
15513W        W46729  15.326   8.977   8.039 -0.1845 -0.1790 -0.0927
15514W        W46730   1.728  19.283   0.333 -0.2665  0.0495  0.1528
15515W        W46731   4.710  10.392   0.355 -0.2253  0.0854 -0.0727
15516W        W46732  18.850  16.578   8.029  0.2820 -0.0757  0.2371
15517W        W46733  24.798  17.125  10.403 -0.0027  0.0770  0.2814
15518W        W46734  15.980  11.062   0.068 -0.1029 -0.1696  0.0767
15519W        W46735   8.614  13.943   8.322  0.0088  0.1002  0.3645
15520W        W46736   2.076   9.920  10.265 -0.0344 -0.0936  0.3426
15521W        W46737  17.283  12.019   6.927 -0.1093  0.1807  0.0463
15522W        W46738  22.083  14.066   2.566  0.0604 -0.4174 -0.1794
15523W        W46739   0.155  23.297  10.235 -0.3086  0.1857  0.2297
15524W        W46740  12.748   3.952   8.845 -0.0603  0.1007  0.0126
15525W        W46741  20.356  22.130  10.309 -0.0290  0.0216  0.2312
15526W        W46742  25.045   8.515   9.567  0.1969  0.2265 -0.0116
15527W        W46743  21.438  23.649   7.653  0.1011 -0.2237  0.1451
15528W        W46744  14.094  14.491   0.383  0.0943  0.0659  0.1534
15529W        W46745  17.749  24.184   2.443 -0.1561 -0.0857  0.0917
15530W        W46746  27.287  17.169   2.011 -0.0378  0.1402  0.2564
15531W        W46747   2.785   8.797   1.364  0.2582 -0.1412  0.2006
15532W        W46748  22.382   8.416   0.766  0.1304  0.6264 -0.1528
15533W        W46749   9.303   1.122   0.736  0.0869 -0.1045 -0.3608
15534W        W46750   7.986  18.593   2.195  0.2132  0.1270  0.0230
15535W        W46751   9.481  10.872   9.230 -0.0330  0.0222  0.3005
15536W        W46752  11.609   3.050   0.741  0.2447  0.0780  0.0249
15537W        W46753  17.830  27.393   8.170 -0.1837 -0.0405 -0.1002
15538W        W46754  14.714  10.869   0.829  0.0150  0.2755  0.1283
15539W        W46755   2.005  20.626   2.233 -0.1500 -0.0027  0.0213
15540W        W46756   5.057  15.397   1.979  0.3315 -0.1868  0.1297
15541W        W46757   7.565  14.858   9.517 -0.0423 -0.1178 -0.1606
15542W        W46758  10.738   0.287   8.786  0.1460  0.3480 -0.0267
15543W        W46759  15.170   0.156   0.640 -0.4394  0.2074 -0.2433
15544W        W46760   0.865   7.745   3.079 -0.1490  0.3428  0.0063
15545W        W46761   8.861   2.151   2.593  0.1117 -0.0901 -0.2928
15546W        W46762  14.787  18.748  10.203 -0.2933  0.0027 -0.0879
15547W        W46763  15.221  25.281   1.665 -0.1079 -0.1957 -0.0635
15548W        W46764   1.315  26.670   3.414 -0.1189 -0.0827 -0.0284
15549W        W46765  13.251  12.821  10.098 -0.1873  0.0080 -0.0402
15550W        W46766  10.314  10.280   2.678 -0.1729 -0.3143 -0.1540
15551W        W46767   1.610  19.820   3.353  0.4286  0.0388  0.0269
15552W        W46768  26.472  19.127   9.005 -0.2807  0.0264 -0.2511
15553W        W46769  25.928   5.103   2.243  0.1264  0.0571  0.3202
15554W        W46770  15.308  19.469   1.327  0.0371 -0.0165  0.3650
15555W        W46771  21.908   9.398   8.985 -0.1759 -0.0892 -0.0429
15556W        W46772  10.608  13.694   2.103 -0.1392 -0.0442 -0.0755
15557W        W46773  21.709  19.301   0.534  0.2560 -0.0462 -0.0576
15558W        W46774  26.735  23.120   2.769  0.2903 -0.1347  0.0731
15559W        W46775   3.182  14.017   2.789 -0.0745 -0.1523  0.2064
15560W        W46776   6.841   5.523   0.415 -0.0815  0.0548  0.2720
15561W        W46777  27.300  18.977   9.151 -0.2482  0.0670 -0.1400
15562W        W46778   3.509  12.872   3.186  0.1850 -0.2336 -0.2097
15563W        W46779  26.475  26.446   2.967  0.0606  0.1627 -0.0628
15564W        W46780   8.829  24.818   9.273  0.2352 -0.2642  0.1250
15565W        W46781   1.157   9.943   3.655  0.0711  0.0098 -0.0426
15566W        W46782  15.315  24.161   8.782 -0.0948 -0.0873  0.0150
15567W        W46783  22.032  11.864   3.067  0.0955 -0.0934 -0.0470
15568W        W46784  26.648  14.096  10.029  0.1080 -0.1654 -0.2177
15569W        W46785  18.777   1.248   2.437 -0.0148  0.1327  0.3356
15570W        W46786  21.191  19.254   8.073 -0.3382 -0.5714 -0.0806
15571W        W46787   8.818   3.933   8.048  0.0591  0.1200  0.0999
15572W        W46788  10.350   2.800   7.036  0.1014 -0.1125 -0.0433
15573W        W46789   4.368  21.161   9.732 -0.3442 -0.3854 -0.0436
15574W        W46790  24.477   7.539   2.890  0.1932 -0.1423 -0.4976
15575W        W46791   8.547  12.474   8.135  0.0383 -0.0041 -0.1069
15576W        W46792  22.362   7.169   1.280  0.0128 -0.0587  0.0981
15577W        W46793  23.808  25.597   2.219  0.1580  0.0220  0.1118
15578W        W46794   9.718  15.936   2.431 -0.1904  0.1411  0.2559
15579W        W46795   0.318   6.134  10.050 -0.1798 -0.2733 -0.0268
15580W        W46796   5.503   4.804   0.740  0.0367  0.1810  0.1635
15581W        W46797  26.649   8.283   8.503 -0.1558 -0.2287  0.0421
15582W        W46798  10.620  27.477   9.839 -0.0392 -0.1639  0.0356
15583W        W46799   3.662   0.979   3.100 -0.2449 -0.1665 -0.0137
15584W        W46800  22.927  20.821   9.394 -0.2522  0.0658 -0.3730
15585W        W46801  20.526  13.389  10.118  0.1124 -0.1010  0.1891
15586W        W46802   3.008  17.273   9.526  0.0813 -0.1836  0.0319
15587W        W46803   0.367   5.158  10.084  0.1024  0.2259 -0.2169
15588W        W46804   2.569  10.211  10.191  0.0377  0.3624 -0.0789
15589W        W46805   9.507   5.912   1.005 -0.0519 -0.3010 -0.0727
15590W        W46806  26.528   7.804   8.442 -0.0432  0.4422 -0.2373
15591W        W46807  21.475  23.069   2.601 -0.0138 -0.1876 -0.0072
15592W        W46808  12.535  12.176  10.216  0.1429 -0.1149  0.0163
15593W        W46809  27.447  22.082   9.159  0.0565  0.1677 -0.1772
15594W        W46810   0.832  10.220   9.923 -0.0789 -0.0126  0.1607
15595W        W46811  24.635  19.235   2.476  0.2299 -0.0938  0.0502
15596W        W46812  12.119  19.047   1.347 -0.1288 -0.1524 -0.1178
15597W        W46813   4.976   6.302   1.977 -0.0148  0.0964  0.0905
15598W        W46814  26.850   2.870   0.480 -0.2842  0.1385  0.0274
15599W        W46815   0.849   1.235   9.445  0.2548  0.0039 -0.2277
15600W        W46816  20.694   9.159   2.442 -0.0971  0.1204  0.0368
15601W        W46817  11.304   9.362   8.705  0.2833 -0.1358 -0.0295
15602W        W46818   9.744   2.795   2.838  0.0845  0.5310  0.3532
15603W        W46819   6.167   3.260   0.375 -0.2999  0.0658 -0.0246
15604W        W46820   8.093  24.727  10.060 -0.0508  0.3760  0.1156
15605W        W46821  13.156  18.017  10.065 -0.0455 -0.1448 -0.0439
15606W        W46822  20.897   7.610   2.281 -0.1366  0.1126 -0.1052
15607W        W46823  10.244  24.787   3.471  0.0472  0.0516 -0.0957
15608W        W46824  14.907   0.904   3.299 -0.0504 -0.2408 -0.0948
15609W        W46825  11.667  13.399   0.658  0.1178 -0.1217 -0.0651
15610W        W46826  13.884  17.049   1.426 -0.0700  0.4084 -0.0482
15611W        W46827  11.214   5.548   1.348  0.0202 -0.2206 -0.1695
15612W        W46828  26.263  18.109   3.984 -0.2215 -0.3840  0.2247
15613W        W46829   8.451   4.553   1.254  0.1485  0.0839 -0.4429
15614W        W46830  17.260   3.197   7.863  0.4757  0.0426  0.0333
15615W        W46831  20.383   9.790   0.266  0.0079 -0.1756 -0.1407
15616W        W46832   1.468  14.928   2.036  0.2509  0.0701 -0.1077
15617W        W46833  13.468   3.481   8.864 -0.2604 -0.1522 -0.0219
15618W        W46834  17.635  17.157   1.473 -0.0591 -0.1718 -0.0407
15619W        W46835  26.526   8.841   3.171  0.0536 -0.1099 -0.0358
15620W        W46836   8.113  14.032   9.622  0.1985 -0.0632 -0.1992
15621W        W46837  19.751   0.741   2.743  0.0193  0.0342  0.2367
15622W        W46838  13.177  16.470   1.487  0.1615 -0.2464 -0.3410
15623W        W46839   8.509  24.656   2.921 -0.1858 -0.1746 -0.1848
15624W        W46840  22.545  25.321   1.451  0.0305  0.1238  0.1065
15625W        W46841  15.789  21.066   8.289 -0.0540 -0.0885  0.1592
15626W        W46842  13.787  25.154   8.587  0.2134 -0.0090  0.1808
15627W        W46843  20.732   8.529  10.297  0.1538  0.2211 -0.1349
15628W        W46844  21.401  19.958   1.869 -0.0551 -0.1376  0.0076
15629W        W46845   3.702  27.535   1.580 -0.3511 -0.3031 -0.2585
15630W        W46846  19.369  17.553   0.943  0.1205 -0.1046  0.1842
15631W        W46847  22.109  10.437   9.670  0.0009  0.2295  0.2335
15632W        W46848   1.394   5.700   2.347  0.2719 -0.0831 -0.1416
15633W        W46849   1.547  23.294   3.342  0.0428  0.1921 -0.0866
15634W        W46850  20.064   0.019   2.902 -0.0798 -0.3672 -0.0301
15635W        W46851  22.076  25.688   0.676  0.1088 -0.0753 -0.0561
15636W        W46852  14.519  23.697   9.307  0.3949  0.0791 -0.1006
15637W        W46853  21.953  22.977   2.581 -0.7005 -0.1737  0.0568
15638W        W46854   2.467   2.159   7.332  0.2158 -0.0416 -0.2804
15639W        W46855   8.228  12.886   9.517 -0.2147  0.0519 -0.1682
15640W        W46856  22.865  23.672   7.987  0.2821  0.0486  0.1070
15641W        W46857  20.800  21.011   1.230  0.0162 -0.1335 -0.2468
15642W        W46858  16.779  20.383   0.299  0.1464  0.0288 -0.2799
15643W        W46859  22.897   4.670   3.436 -0.0354 -0.3408  0.2697
15644W        W46860  22.869   8.571   8.391  0.3171 -0.2046 -0.2663
15645W        W46861  16.308   9.819   9.446  0.0883 -0.3016 -0.0083
15646W        W46862  22.897  12.975   2.375  0.1311  0.0347  0.2252
15647W        W46863   7.819   3.553   7.545 -0.1122  0.1742 -0.0741
15648W        W46864  14.696  13.278   1.504  0.0438 -0.0500 -0.2797
15649W        W46865  20.368  13.766  10.494  0.2254  0.2018 -0.1080
15650W        W46866  24.952  12.016   3.317  0.0965  0.0113  0.0087
15651W        W46867   1.600  21.918   9.883 -0.2572 -0.2889 -0.0813
15652W        W46868  22.142  16.928   7.506 -0.2772 -0.2767  0.0561
15653W        W46869  14.265   0.440   2.793 -0.1467 -0.1363  0.1487
15654W        W46870   1.250  15.157  10.356 -0.0170 -0.1625 -0.1095
15655W        W46871  25.927  19.917  10.209 -0.2813 -0.1750  0.1775
15656W        W46872  24.981   4.714   9.969  0.1667  0.0904 -0.1915
15657W        W46873  10.519  11.088   8.551 -0.2685 -0.0536 -0.1122
15658W        W46874   0.845  27.256   0.442 -0.2688  0.2121  0.2674
15659W        W46875  26.877   6.686   2.546  0.1156  0.1497 -0.0450
15660W        W46876   8.998  14.224   3.450  0.1981 -0.0408  0.0113
15661W        W46877  15.352   4.229  10.522 -0.0303 -0.0206  0.2745
15662W        W46878  11.698   2.477   0.774  0.1540  0.0987  0.3270
15663W        W46879  12.498  26.265   0.618  0.0534 -0.3032 -0.0281
15664W        W46880   1.078  18.624   3.349  0.0609  0.1424 -0.1079
15665W        W46881   7.672  26.401   0.613 -0.5408  0.0538 -0.2419
15666W        W46882  15.545  22.276   1.678  0.3396  0.3235  0.0506
15667W        W46883   7.498   5.017   0.633  0.1367 -0.1742  0.0232
15668W        W46884   2.650   7.358  10.416 -0.0249 -0.1105  0.0072
15669W        W46885  15.085  11.910   0.530 -0.0304  0.2607 -0.0918
15670W        W46886  26.211   0.774   0.547  0.1787  0.1275 -0.1444
15671W        W46887  21.043  12.655   2.941 -0.3453 -0.2839 -0.0306
15672W        W46888   7.096  24.823   8.817 -0.0554 -0.1523 -0.0617
15673W        W46889   0.128  13.268   0.869  0.1401  0.0373  0.2110
15674W        W46890  16.840   1.094   0.953 -0.1453 -0.2226 -0.1570
15675W        W46891  23.445  18.691   0.531  0.0741 -0.4361  0.0693
15676W        W46892   0.875  16.429   8.169  0.1133  0.1052 -0.3402
15677W        W46893   2.321  23.517   2.077 -0.0768 -0.0162 -0.2624
15678W        W46894  25.185  14.200   9.153  0.0708 -0.1304  0.1411
15679W        W46895  19.799  18.542   0.819 -0.2484  0.0927  0.1071
15680W        W46896  26.006  13.398   2.769 -0.1292  0.0249  0.0652
15681W        W46897  13.035   8.368   0.250  0.1667 -0.2103 -0.0966
15682W        W46898  25.254  18.214   2.715 -0.2686 -0.2740  0.1611
15683W        W46899  20.777  21.179   3.295 -0.0130 -0.0132 -0.0659
15684W        W46900  27.490  22.543   2.271 -0.0504  0.0993  0.2246
15685W        W46901  11.772  21.459   1.755  0.2332  0.1372 -0.2153
15686W        W46902  17.786   9.013   1.783  0.3208 -0.0408 -0.2555
15687W        W46903  23.554  26.545   8.099 -0.0354 -0.3263 -0.0967
15688W        W46904  27.191   0.688  10.070  0.0844 -0.0893 -0.0722
15689W        W46905   5.344   8.986   2.646 -0.1044 -0.0884 -0.3196
15690W        W46906   4.698  20.812   9.787 -0.2221 -0.1743  0.2039
15691W        W46907  23.202  13.420   8.708 -0.2758  0.0304  0.0873
15692W        W46908  25.205  25.438   2.291  0.0261  0.1010 -0.0325
15693W        W46909   1.161  12.325   1.046 -0.0367  0.0465  0.1480
15694W        W46910  23.105  16.990   1.827  0.1779  0.0449 -0.1140
15695W        W46911  22.357  24.991   8.287 -0.0125 -0.0687  0.3446
15696W        W46912  16.181  12.324   2.621 -0.0407  0.4402 -0.2943
15697W        W46913   2.166  12.289   2.196  0.2311 -0.1357 -0.1518
15698W        W46914   6.478   8.558   0.946 -0.0915  0.1079 -0.1280
15699W        W46915  19.604  26.938   2.398 -0.0039  0.2329  0.0445
15700W        W46916  11.883   1.097   8.204  0.1408  0.0522  0.2564
15701W        W46917   2.168  10.249   9.843  0.0535  0.1580 -0.2051
15702W        W46918   3.088  20.795   2.229  0.0435  0.1953  0.1307
15703W        W46919   2.766  11.196   3.186 -0.0859  0.0574 -0.3091
15704W        W46920  18.203  16.162  10.492  0.0721  0.2935 -0.2384
15705W        W46921   0.676   8.848   3.733 -0.0313  0.0115 -0.1947
15706W        W46922  27.202  16.685   1.986 -0.2143  0.1906 -0.2828
15707W        W46923   2.297   0.016   9.481  0.0074  0.0182  0.1916
15708W        W46924  21.119   1.942  10.228 -0.1490  0.0372 -0.1593
15709W        W46925   1.449   5.785  10.167  0.1515  0.0951  0.0799
15710W        W46926  14.349  21.681   1.356 -0.2742 -0.1529  0.0923
15711W        W46927   3.796   9.081   8.821 -0.2398 -0.0760  0.3913
15712W        W46928  19.232  22.583   2.253  0.2055 -0.2383  0.1661
15713W        W46929   4.229  22.949   0.194 -0.1263  0.0219 -0.1251
15714W        W46930   5.434  17.390   1.184 -0.1409  0.1585  0.1354
15715W        W46931  22.652   9.411   1.929  0.2602  0.0231 -0.3003
15716W        W46932  14.607   6.562   3.290 -0.0855 -0.0200  0.3533
15717W        W46933  24.849  11.728   4.707 -0.2187 -0.2429 -0.0275
15718W        W46934   1.591  14.101  10.382  0.2505 -0.1116  0.2362
15719W        W46935  18.671  17.007   7.610  0.0064  0.2731 -0.3481
15720W        W46936  10.757  13.006   8.995 -0.3990 -0.0030  0.2511
15721W        W46937  16.457  14.878   2.656 -0.1876 -0.3707 -0.0804
15722W        W46938  12.287  10.110   1.746  0.2577 -0.0337  0.0251
15723W        W46939   2.198   2.373   0.070  0.0382 -0.1499  0.1764
15724W        W46940  18.528  18.398   2.644 -0.4357  0.2353 -0.0611
15725W        W46941  11.365  17.513   1.544 -0.0607 -0.0406 -0.3208
15726W        W46942   9.316   7.026   8.232  0.1881  0.0259 -0.1028
15727W        W46943  10.710  17.353   9.333 -0.1065  0.2782  0.1639
15728W        W46944  10.210  10.743   8.768 -0.3035 -0.0070 -0.1116
15729W        W46945  20.014  27.080   2.781 -0.4825 -0.2108  0.2645
15730W        W46946   2.866  18.707   8.813  0.0585  0.0442  0.1174
15731W        W46947  18.600  19.342   0.600 -0.0191  0.0899  0.0148
15732W        W46948   6.884  21.863   2.148  0.0790 -0.1709 -0.1966
15733W        W46949  19.616  18.074   2.902 -0.0233 -0.2051 -0.1338
15734W        W46950  11.035   1.586   1.903 -0.0507  0.2714 -0.0649
15735W        W46951   9.869  19.477   8.318  0.1311  0.2963 -0.0839
15736W        W46952  12.381  25.199   2.432 -0.3162 -0.1744 -0.0372
15737W        W46953  10.085  19.740   1.493  0.0728 -0.2740 -0.4673
15738W        W46954   1.027  11.068   9.546  0.0786  0.2369 -0.0639
15739W        W46955   4.871  10.786  10.200 -0.1183 -0.0608  0.1986
15740W        W46956  12.378   6.356   8.307  0.0433  0.2370  0.2232
15741W        W46957  10.871  13.446   3.640  0.1556  0.1575 -0.1226
15742W        W46958   2.292  17.049   0.878 -0.2018  0.1823 -0.0113
15743W        W46959   0.054  13.912   1.596 -0.1684 -0.2060  0.0537
15744W        W46960   2.940   7.121   9.724 -0.1444 -0.3444  0.1270
15745W        W46961  20.840  24.585   9.312 -0.2296 -0.1375 -0.1213
15746W        W46962  23.001   4.767   1.274 -0.0805 -0.2206  0.1294
15747W        W46963  17.266  22.412   3.703 -0.1251 -0.4328  0.0096
15748W        W46964  22.109  17.862   9.361  0.2506 -0.1523  0.2440
15749W        W46965  18.522  14.310   2.519 -0.0700  0.3632  0.1650
15750W        W46966  17.538  26.094   8.232  0.1711  0.0282 -0.1863
15751W        W46967  25.865  24.607   2.025  0.2962  0.1128  0.0375
15752W        W46968   0.070  26.568   1.422  0.2194  0.2484 -0.1204
15753W        W46969  25.857   8.082   2.631  0.0466 -0.2930 -0.0673
15754W        W46970   6.874  10.221   9.586 -0.0446  0.2616 -0.0744
15755W        W46971   1.983   4.348   1.734  0.1394 -0.1197  0.0494
15756W        W46972  12.624  11.326   2.134  0.0373 -0.0582  0.1963
15757W        W46973  10.821  13.705   8.459 -0.0128 -0.1752 -0.0400
15758W        W46974   4.638  24.621   1.313  0.1303 -0.1098  0.1765
15759W        W46975  20.421  15.490   1.830  0.1342 -0.0356  0.0123
15760W        W46976  20.956   0.185   7.371  0.0730 -0.1437  0.1847
15761W        W46977   8.873   4.406   0.590  0.0742  0.3865  0.3583
15762W        W46978  19.834  11.911   7.629 -0.1126 -0.1964 -0.2629
15763W        W46979  12.036  11.308  10.446  0.1994  0.1317 -0.0908
15764W        W46980   8.776  12.713   2.500  0.0579  0.0259 -0.0149
15765W        W46981  22.620   6.882   8.690  0.1280 -0.0977 -0.0470
15766W        W46982   5.210  11.597   9.820 -0.0256 -0.0572 -0.0093
15767W        W46983   0.627  25.053   2.824  0.0653 -0.0498  0.2825
15768W        W46984   5.272   6.608   8.395 -0.0730 -0.1434 -0.0789
15769W        W46985  18.523   8.571   9.183 -0.0149 -0.1626  0.1003
15770W        W46986  20.193  24.681   7.647  0.1262 -0.1088 -0.0339
15771W        W46987  10.974  21.161   0.944 -0.1439  0.3452  0.0346
15772W        W46988   2.728   5.921   0.688  0.3719 -0.0476 -0.1868
15773W        W46989  24.557  24.149   2.519 -0.3105 -0.0583 -0.0041
15774W        W46990  22.282  27.579   9.940 -0.2612 -0.1950 -0.3665
15775W        W46991  18.317   6.751   1.495  0.1100  0.1378 -0.1953
15776W        W46992  15.211  20.089   8.281 -0.2135  0.2756  0.0668
15777W        W46993  20.598   8.896   3.738  0.0954  0.2310  0.0788
15778W        W46994  12.095  24.522   1.519  0.1661 -0.0711  0.1766
15779W        W46995  10.778  19.388   2.552 -0.1575 -0.0427  0.0347
15780W        W46996  23.877  17.376   7.848 -0.3202 -0.0206 -0.0034
15781W        W46997  19.448   9.057   9.179 -0.0725 -0.1113 -0.0015
15782W        W46998  26.806   5.953   7.752  0.1660  0.0129  0.0523
15783W        W46999  18.113   6.136   7.276 -0.3875 -0.0256 -0.1596
15784W        W47000  21.528  27.453   9.430 -0.0083  0.0613 -0.3842
15785W        W47001   3.573  21.353   0.145 -0.4378  0.0027 -0.0836
15786W        W47002  20.346  12.153   2.967 -0.0318 -0.3184 -0.3249
15787W        W47003  17.896  19.307  10.098  0.0834  0.1915  0.0390
15788W        W47004  12.172  13.117   3.514  0.0219 -0.0253 -0.0414
15789W        W47005  19.773  13.113   2.550 -0.1184 -0.2738 -0.1233
15790W        W47006  14.557  18.555   0.925  0.2979  0.0590  0.0048
15791W        W47007  22.658   1.194   7.867 -0.1286  0.3397 -0.0721
15792W        W47008   9.429  22.701   1.226 -0.0494 -0.2313 -0.2314
15793W        W47009   8.174  23.162   2.585  0.1410 -0.1824  0.0870
15794W        W47010   6.413   6.388   3.498 -0.1765  0.0358 -0.0435
15795W        W47011  19.599   9.333   7.954  0.3018  0.4398 -0.0792
15796W        W47012  27.445   9.265   0.417  0.1391  0.1064  0.1043
15797W        W47013   6.935  26.471   2.980  0.0248 -0.2183 -0.0090
15798W        W47014  25.235  19.331   7.546 -0.2170 -0.1565 -0.1329
15799W        W47015  14.655   7.735   2.901  0.1796  0.2515  0.1574
15800W        W47016  19.970  22.071   2.456 -0.2160 -0.1941  0.2438
15801W        W47017   1.140  20.880   2.468  0.0306 -0.2143  0.0699
15802W        W47018  10.708  12.656   1.224 -0.0633  0.1315  0.0337
15803W        W47019   5.663  19.080   9.730  0.1191  0.0854  0.1183
15804W        W47020  16.799   5.495   0.357  0.0131  0.2148 -0.0457
15805W        W47021  14.894  20.490   2.849 -0.1243  0.2406 -0.1709
15806W        W47022  14.907   4.841   8.718 -0.3412  0.0640 -0.2319
15807W        W47023  17.626  14.892   9.407  0.4386 -0.1183 -0.1079
15808W        W47024  25.548  13.848   1.253  0.0298 -0.2160 -0.0864
15809W        W47025   2.672   4.293   1.060  0.0566 -0.3674  0.1057
15810W        W47026   2.192  15.998   9.073 -0.1188  0.0731 -0.0082
15811W        W47027  24.427  13.559   7.719  0.0507  0.0667  0.1331
15812W        W47028  16.884   9.454   2.557 -0.1411 -0.1350 -0.1144
15813W        W47029  13.742   3.270   1.502 -0.1257 -0.2111  0.0859
15814W        W47030   2.934  17.527   2.062  0.0211 -0.0934 -0.0960
15815W        W47031  25.125  18.041   0.710 -0.1002 -0.0005  0.3536
15816W        W47032  19.216   5.382   7.484 -0.0790  0.0428  0.1752
15817W        W47033   3.198   8.946   0.877  0.4060  0.0149  0.1313
15818W        W47034   2.321  15.157   2.013  0.0284 -0.0849  0.2115
15819W        W47035   2.670  20.345   2.196 -0.1481 -0.2325  0.1129
15820W        W47036   3.852  24.463   9.096  0.1072 -0.2616 -0.0897
15821W        W47037   9.481  22.231   1.278 -0.1187 -0.1801 -0.2856
15822W        W47038   6.965  20.752   1.512  0.2772 -0.2490  0.3001
15823W        W47039   9.615  22.239  10.140 -0.1362 -0.2547  0.1693
15824W        W47040   2.242   1.430   1.188  0.2861 -0.2829 -0.1866
15825W        W47041  17.397  11.159   0.095 -0.0732  0.1404  0.2694
15826W        W47042   0.697  22.935   8.529  0.0812 -0.1335  0.1176
15827W        W47043   1.127   6.920   1.376 -0.1124 -0.3305 -0.1063
15828W        W47044  11.502   6.405   1.465  0.0385 -0.0475  0.1268
15829W        W47045   7.330   8.062   6.997  0.1571  0.0361 -0.0659
15830W        W47046   8.410  21.840   2.022 -0.3975  0.0719  0.1143
15831W        W47047   6.528   6.565   7.879 -0.1926 -0.3748 -0.3795
15832W        W47048  16.996  25.881   2.913 -0.0044  0.0834  0.0062
15833W        W47049  14.558  18.952   8.084  0.2571 -0.0653 -0.0942
15834W        W47050   6.101   7.563   2.291 -0.0006 -0.0076 -0.1064
15835W        W47051  20.420  21.910   1.033  0.0419 -0.0334 -0.2546
15836W        W47052  11.021   7.493   9.890  0.0903  0.2373  0.2812
15837W        W47053  25.827   2.408   1.508 -0.0165  0.0480 -0.0947
15838W        W47054  21.695  16.130   1.368  0.0145 -0.1806 -0.0641
15839W        W47055  10.635  13.638   9.422  0.0134  0.3423 -0.1660
15840W        W47056  20.220  10.319   0.307 -0.1304  0.2471  0.0247
15841W        W47057  22.554  22.560   1.556 -0.0096  0.5870 -0.2188
15842W        W47058   1.229  22.032   2.152  0.0805 -0.1179 -0.0474
15843W        W47059   7.990  10.805   9.300  0.0924 -0.0875  0.1009
15844W        W47060   9.490   7.746   9.212  0.2358  0.2808  0.0638
15845W        W47061   0.833  27.169   8.990 -0.1557 -0.0087 -0.0108
15846W        W47062  13.415  19.350   8.746  0.0750 -0.0307  0.2150
15847W        W47063  19.217  27.593   1.195 -0.2528 -0.0282  0.0057
15848W        W47064  10.453   9.060  10.508  0.3024 -0.0206  0.4185
15849W        W47065  11.216  16.508   0.336  0.0668  0.0941  0.1164
15850W        W47066   9.083  27.475   9.462  0.0575  0.0830  0.0668
15851W        W47067  11.140   7.584   3.167  0.0325 -0.0138  0.0470
15852W        W47068  21.625  20.975   9.622 -0.0577 -0.1748 -0.0567
15853W        W47069   7.223   4.513  10.115 -0.4332  0.0338 -0.1791
15854W        W47070   5.645  27.329   1.833 -0.0437  0.1898 -0.1855
15855W        W47071  10.430  22.830   0.879 -0.4963 -0.1632 -0.3127
15856W        W47072  11.030   0.715   8.528 -0.1193  0.1260 -0.4381
15857W        W47073   2.979  12.615   9.775  0.1851  0.0849 -0.0132
15858W        W47074  21.776   5.990  10.465 -0.1310  0.0020 -0.2127
15859W        W47075  26.888   0.643   9.636 -0.1456 -0.0479  0.0528
15860W        W47076  14.709   3.639   2.432 -0.1601  0.1349  0.0956
15861W        W47077   4.354  14.399   9.011  0.2219 -0.0284 -0.0019
15862W        W47078   5.461   3.828   1.766 -0.0969  0.1240  0.1233
15863W        W47079  18.326   9.854   2.452  0.1801  0.2689  0.1203
15864W        W47080   8.680   4.455   1.687  0.2171  0.0868  0.0821
15865W        W47081  27.164  24.124   8.259  0.0750  0.2187 -0.1080
15866W        W47082   3.557  16.417   0.979 -0.2212  0.2227 -0.0950
15867W        W47083  25.307  12.476   7.743  0.1981 -0.1502 -0.0845
15868W        W47084  14.357  19.144   3.267 -0.0693  0.1204  0.0342
15869W        W47085  19.056   6.114   3.301  0.0485 -0.1078 -0.2431
15870W        W47086  18.549  18.553   3.934  0.2813 -0.2187  0.3367
15871W        W47087  12.962  18.900   0.966  0.1311  0.1572  0.0538
15872W        W47088  19.274  19.402   9.586  0.0668 -0.1459  0.3985
15873W        W47089   0.827  16.828   0.921  0.3360  0.6062 -0.1760
15874W        W47090   3.621   0.537   9.960 -0.0296 -0.0674  0.0563
15875W        W47091  15.323   6.737   2.553 -0.1037 -0.1771 -0.1172
15876W        W47092   1.311  14.178   7.972 -0.0318 -0.0530 -0.1603
15877W        W47093  24.727   6.444   0.373  0.1059 -0.2536 -0.1241
15878W        W47094  13.003   1.993   3.126 -0.1126 -0.3099 -0.2658
15879W        W47095  12.688   8.294   8.931  0.0618  0.4930  0.2129
15880W        W47096  16.793   2.885   9.936 -0.0205  0.1359  0.0060
15881W        W47097   5.685  10.618   7.954  0.1240 -0.1159 -0.0830
15882W        W47098  17.250  15.625   8.776  0.2300  0.0241  0.2107
15883W        W47099  20.481  17.770   9.332  0.1685 -0.1386  0.2865
15884W        W47100  11.330  14.779   3.673 -0.1115  0.1423  0.4715
15885W        W47101   4.053   7.293   3.286  0.0089 -0.3252 -0.0294
15886W        W47102   7.087   5.303   9.799 -0.1678 -0.0179 -0.0596
15887W        W47103   8.469  16.893   2.878 -0.0810  0.0420  0.0585
15888W        W47104  22.147  19.790   7.331 -0.2964  0.0354  0.1658
15889W        W47105   6.867   6.834   8.468 -0.1095 -0.0784  0.0134
15890W        W47106  23.531  22.414   0.815  0.0220  0.2412  0.4075
15891W        W47107   5.386   5.001   9.752  0.3525 -0.0594 -0.0103
15892W        W47108   7.335   0.816   0.873  0.3281 -0.0444 -0.1193
15893W        W47109  15.603   0.944   2.187  0.3241  0.0907  0.1934
15894W        W47110  21.930  20.128   3.659 -0.1575 -0.0296  0.0913
15895W        W47111  16.806  21.030   3.662  0.0139 -0.0250  0.6537
15896W        W47112   3.238   6.336  10.320  0.3809 -0.2204 -0.0782
15897W        W47113   1.953  24.345   3.920  0.1933 -0.2869 -0.2222
15898W        W47114  17.319  21.263   9.791  0.1936 -0.1059  0.0777
15899W        W47115  21.211  24.358   2.796  0.2584  0.0961 -0.1824
15900W        W47116  13.924   8.656  10.293  0.1129 -0.1921  0.4349
15901W        W47117  20.315  15.301   7.836  0.1838 -0.0888 -0.0483
15902W        W47118   4.264  19.805  10.242 -0.0677  0.1905 -0.0949
15903W        W47119  22.184  10.037   1.315 -0.2459  0.1542  0.1835
15904W        W47120   4.703  13.501   0.992  0.1278  0.1191  0.1270
15905W        W47121   9.289  14.337   2.092  0.1534 -0.0169  0.1477
15906W        W47122  26.315  16.947   8.988  0.0401 -0.1153  0.0745
15907W        W47123  20.605   3.828   0.481 -0.1813 -0.1301 -0.1799
15908W        W47124   3.879   6.657  10.482  0.1342 -0.1240  0.0607
15909W        W47125  10.210   0.156   7.564 -0.1910  0.1474  0.0080
15910W        W47126   8.624   9.361   2.107  0.1411  0.0133 -0.1862
15911W        W47127  22.644  26.243   8.022 -0.3172  0.1630 -0.0126
15912W        W47128  16.249   2.702  10.461 -0.1474  0.1917  0.1930
15913W        W47129  14.204  15.097   2.627 -0.1143 -0.1405  0.1190
15914W        W47130  22.041  24.149   1.258 -0.0204  0.2603 -0.1205
15915W        W47131  24.579  24.066  10.288 -0.1862 -0.0245  0.3844
15916W        W47132   5.800  20.697   9.842  0.0597 -0.2280 -0.0916
15917W        W47133   6.334  10.968   1.454 -0.1169  0.0426  0.0433
15918W        W47134  23.519  17.425   2.299  0.1015  0.0376 -0.0977
15919W        W47135   7.788  24.592   1.377  0.0015  0.2856 -0.0921
15920W        W47136  26.536  24.072   1.768  0.0494 -0.1709  0.0966
15921W        W47137   0.458  21.747   8.504  0.0831  0.1103  0.2672
15922W        W47138  16.079  26.878   8.056 -0.0425  0.1161  0.2146
15923W        W47139   0.442  26.130   9.268  0.2066 -0.1619  0.0931
15924W        W47140   6.738   0.463   9.582 -0.1049  0.2337 -0.2041
15925W        W47141  19.806  19.085   8.842  0.0250 -0.0888  0.1121
15926W        W47142   4.814   2.433   9.580  0.1588  0.2048  0.1757
15927W        W47143   4.232   7.411   1.375 -0.0925 -0.1194  0.3183
15928W        W47144  14.661   1.727   9.656 -0.3659  0.0859  0.2622
15929W        W47145  24.786   5.380   3.982  0.1182  0.3251  0.2669
15930W        W47146   4.826   6.601  10.295 -0.0799  0.1405  0.2463
15931W        W47147   0.433  10.744   2.808  0.1758  0.0407  0.0378
15932W        W47148  20.332   3.836   2.627 -0.2989  0.0105 -0.0908
15933W        W47149  16.082   8.128   1.707 -0.0423  0.0261 -0.2176
15934W        W47150   4.130  21.624   0.131 -0.0755  0.0883  0.0840
15935W        W47151  21.551  25.801   9.717 -0.2807  0.1949 -0.2212
15936W        W47152  23.768  12.458   2.391  0.3313 -0.0249 -0.1919
15937W        W47153  20.255  20.589   1.749 -0.1930  0.1891  0.1843
15938W        W47154   6.145  17.404   0.873  0.1695 -0.0876  0.1114
15939W        W47155  13.940   6.626   9.813 -0.2748 -0.0130 -0.3919
15940W        W47156  13.563  12.793   0.810 -0.0484  0.1478  0.0307
15941W        W47157  16.963  12.812   0.825 -0.0123 -0.2858 -0.1354
15942W        W47158  16.549   5.827   0.725 -0.0656 -0.1648  0.0812
15943W        W47159   9.004   2.886   1.244  0.0692  0.0813  0.3982
15944W        W47160  11.064  15.993   1.222 -0.2414 -0.3253 -0.0233
15945W        W47161  11.363  27.101   7.685  0.2468 -0.1664  0.0596
15946W        W47162  20.831   4.761   2.288  0.0435 -0.0473 -0.0845
15947W        W47163  17.402  16.094   0.063  0.2010 -0.0836  0.1080
15948W        W47164  21.786   6.689   1.788  0.2771  0.3305  0.2365
15949W        W47165  11.252  19.100   2.889 -0.0792 -0.2119 -0.1566
15950W        W47166  23.073  19.449   7.084  0.0950  0.2200 -0.0911
15951W        W47167   8.298  24.234   8.147 -0.3325  0.0540  0.2254
15952W        W47168  15.009  20.164   7.708 -0.0541  0.2010  0.2782
15953W        W47169   2.850  14.137   8.286  0.0012  0.2471  0.1192
15954W        W47170  24.008  21.979   2.021  0.1427 -0.2202 -0.6110
15955W        W47171   4.759  21.214   8.613  0.1739 -0.1094  0.1516
15956W        W47172  11.087  26.902   1.341 -0.0845 -0.3769  0.0229
15957W        W47173  15.990   3.123   8.372  0.1739  0.4270 -0.2603
15958W        W47174  17.939   5.712   2.856  0.0991  0.4660 -0.2989
15959W        W47175  10.138   2.011   9.563 -0.1187  0.1982  0.0675
15960W        W47176  27.072  17.928   8.348 -0.0480  0.2484  0.1074
15961W        W47177   0.891  11.764  10.386  0.0009 -0.3326  0.1251
15962W        W47178  10.511  18.552   2.591 -0.4088  0.1085 -0.0006
15963W        W47179   2.325  20.026   8.593  0.0898 -0.0322 -0.0442
15964W        W47180   2.243  19.232   8.360 -0.1047 -0.2065  0.2919
15965W        W47181   4.189   8.577   9.260 -0.1955  0.1023 -0.1677
15966W        W47182  10.558  14.531   8.398 -0.4506  0.1728 -0.1862
15967W        W47183   9.882   6.363   1.151 -0.0114 -0.1146  0.0222
15968W        W47184  15.066   1.624   1.646 -0.0292 -0.0834  0.0525
15969W        W47185  10.735  15.489   2.009 -0.0324 -0.0194 -0.1502
15970W        W47186  20.753  10.243   3.268 -0.0931  0.5040 -0.1404
15971W        W47187  17.459  21.882   1.032 -0.0045  0.1644 -0.1019
15972W        W47188  15.166   6.313  10.497 -0.1257 -0.0281 -0.0626
15973W        W47189  26.404   8.138   0.717  0.1368  0.0555  0.0288
15974W        W47190  16.184  25.476   1.920  0.1409  0.0066 -0.1722
15975W        W47191  23.146   4.517   2.583 -0.0223  0.2322 -0.0126
15976W        W47192  11.514  20.879   0.921 -0.0444  0.0789  0.0281
15977W        W47193  12.449  25.272   1.940 -0.1532 -0.1309 -0.0979
15978W        W47194  23.072  19.073   0.514  0.0871  0.0301  0.1249
15979W        W47195   9.585   0.600   1.326 -0.1072 -0.2318 -0.0384
15980W        W47196   0.846   0.605   0.721 -0.0831  0.1703  0.0869
15981W        W47197  23.326  11.011   9.867  0.1414 -0.0518  0.3192
15982W        W47198  10.520  14.193   1.781 -0.1218 -0.1654  0.2747
15983W        W47199   5.228   2.147   0.806 -0.0312 -0.2175  0.1213
15984W        W47200   4.270  23.402   9.943  0.0321  0.1826 -0.0502
15985W        W47201  23.447  11.744   1.704 -0.0336 -0.2179  0.0526
15986W        W47202   8.821  10.338   9.504  0.0711 -0.2186  0.0672
15987W        W47203  26.737  21.423   8.207  0.0238 -0.0785  0.1547
15988W        W47204  23.309  13.736   3.234  0.2624  0.2543  0.3189
15989W        W47205   4.205  11.191   2.337 -0.0839  0.0523 -0.0604
15990W        W47206  25.743   0.071   3.363 -0.2878  0.0784 -0.2212
15991W        W47207   8.631  25.083   2.217  0.1268  0.1203  0.1349
15992W        W47208   7.109   0.903   0.449  0.0565  0.0415 -0.1126
15993W        W47209  26.139   3.050   0.583 -0.0253  0.2966  0.2335
15994W        W47210   6.005  18.643   9.378  0.3068  0.2877  0.1316
15995W        W47211   4.558  12.819   9.523  0.3322 -0.0021 -0.1142
15996W        W47212  18.082  15.446   8.857 -0.0316 -0.0282 -0.2525
15997W        W47213   5.240   3.869   2.259 -0.0603 -0.1012  0.0354
15998W        W47214  15.006  19.671   2.858 -0.2231  0.0195  0.1717
15999W        W47215  10.153  18.270   3.566  0.0146  0.1765 -0.2287
16000W        W47216  10.787   1.418  10.394 -0.1775  0.3195 -0.2219
16001W        W47217   2.882   5.491   1.708 -0.1299 -0.2582  0.4487
16002W        W47218  25.801  11.667   7.946  0.0069 -0.0821 -0.0628
16003W        W47219  23.562   5.995   1.212 -0.0816  0.1516  0.0148
16004W        W47220   3.720   5.240   7.332 -0.2363 -0.0471  0.1432
16005W        W47221  20.422  16.316   8.015  0.2388 -0.1473  0.1622
16006W        W47222  13.667  18.232   7.599  0.1354  0.1477  0.1042
16007W        W47223  20.638   2.886   1.844  0.0542  0.2050 -0.1920
16008W        W47224   9.463  19.349   1.084  0.0367 -0.1326  0.1767
16009W        W47225   4.959  27.000   0.170 -0.0831 -0.3281 -0.2563
16010W        W47226  11.934  23.038   8.057 -0.2777  0.0564 -0.0844
16011W        W47227  25.612  14.223   0.786  0.1764  0.0519  0.1800
16012W        W47228   7.720  24.057   1.501 -0.0704  0.2196  0.2789
16013W        W47229  12.269   8.766   1.980 -0.1159  0.3999  0.3064
16014W        W47230   4.200   2.923   7.976 -0.0654 -0.0506 -0.1657
16015W        W47231   0.613   8.328  10.521  0.2032 -0.3399 -0.4372
16016W        W47232  10.506  20.943   1.344 -0.1199 -0.0442  0.2205
16017W        W47233   3.256  17.010   0.812 -0.3542 -0.0908 -0.2976
16018W        W47234  13.572   3.763  10.508  0.0617  0.2028 -0.1131
16019W        W47235  20.009   1.179   9.265 -0.2126 -0.0906 -0.2871
16020W        W47236  11.332   4.173   2.263 -0.0356  0.1594  0.0936
16021W        W47237  11.065   3.418   2.630 -0.0041  0.1052 -0.0547
16022W        W47238  20.675   5.862   1.587  0.2013 -0.1295  0.2009
16023W        W47239  10.747  23.939   8.357 -0.1234 -0.0095  0.0629
16024W        W47240   1.998  12.228   1.705  0.0118 -0.1477  0.0095
16025W        W47241  21.813  16.914   8.302  0.2256 -0.0893 -0.0217
16026W        W47242  14.509   7.611   8.492 -0.0443  0.0467  0.1535
16027W        W47243  16.616   0.421   1.531 -0.0913  0.0477  0.0659
16028W        W47244  27.603   9.400   2.595 -0.3686  0.0084  0.1108
16029W        W47245  10.989  25.993   8.026 -0.1028  0.3285 -0.1721
16030W        W47246  10.172  11.943   9.144  0.0647  0.0583 -0.2968
16031W        W47247  26.262  26.345   9.638  0.0314  0.2330 -0.0272
16032W        W47248   7.190   5.986   0.931 -0.0685 -0.0762  0.2398
16033W        W47249   0.019   3.410   9.874  0.1243 -0.0466  0.0404
16034W        W47250   6.107  12.716   0.592 -0.3188  0.1907 -0.0587
16035W        W47251  16.046   9.010   0.182  0.0404 -0.2116 -0.1523
16036W        W47252  22.496  12.371   8.986 -0.0766 -0.2901 -0.1054
16037W        W47253  15.990   9.109   8.807 -0.1499  0.1687  0.1008
16038W        W47254  12.532  17.530   0.802 -0.0447  0.1521 -0.0732
16039W        W47255   3.453  19.845   8.306  0.0892  0.2370 -0.1978
16040W        W47256   1.449  26.307   9.088  0.1517 -0.3211 -0.2455
16041W        W47257   4.188   6.454   7.209  0.0739  0.2222 -0.1645
16042W        W47258  10.829  21.830   8.042 -0.1039 -0.1286  0.1217
16043W        W47259   5.269   4.769   1.369  0.0584  0.2238 -0.1064
16044W        W47260   3.324  11.628   1.799  0.0534 -0.2379 -0.1578
16045W        W47261  21.837  12.399  10.186 -0.0700 -0.0549 -0.0648
16046W        W47262  26.886  17.902   0.876 -0.1893  0.2592  0.0648
16047W        W47263   9.049  23.952   8.994  0.0521  0.0427  0.0479
16048W        W47264   0.203   0.282   8.589  0.1194  0.2597  0.0389
16049W        W47265  26.947  12.058   0.594  0.4068 -0.0693  0.0518
16050W        W47266   1.762  12.308   9.590 -0.1960 -0.1070  0.1141
16051W        W47267  18.511   5.145   7.828 -0.0878 -0.1913 -0.2000
16052W        W47268   0.975   5.790   9.754  0.2593 -0.1812  0.2466
16053W        W47269   0.603  24.248   1.514  0.0351  0.0531 -0.0531
16054W        W47270   6.288  18.090   1.569 -0.0851  0.0809  0.4242
16055W        W47271  12.864  15.153   7.949 -0.0673 -0.0075 -0.1284
16056W        W47272   7.176  22.855   0.922 -0.3850  0.0786  0.0153
16057W        W47273  14.555  20.902   2.857 -0.4956 -0.2019  0.0693
16058W        W47274   3.286   7.277   1.814  0.0812  0.0607 -0.1660
16059W        W47275   1.344  24.618   3.186  0.0997 -0.0033 -0.2977
16060W        W47276  20.155   9.228   2.395 -0.4054  0.2964  0.1074
16061W        W47277   3.705   1.771   2.018 -0.2062  0.0736  0.2614
16062W        W47278  27.600   9.171  10.521 -0.1842 -0.1987  0.2320
16063W        W47279  10.075   9.962  10.005  0.2224  0.0541  0.0654
16064W        W47280   3.628   2.520   9.150 -0.1071 -0.1004 -0.3938
16065W        W47281   4.571  11.160   0.452  0.1103  0.3166  0.0768
16066W        W47282  25.308  12.910   3.205  0.1112 -0.2164 -0.0511
16067W        W47283  17.204  16.725   7.980 -0.2609  0.1802  0.0150
16068W        W47284   2.122  12.144   0.832  0.0980  0.0075  0.2191
16069W        W47285  23.078   6.349   2.518  0.0363 -0.0439  0.1768
16070W        W47286  24.066   5.817   1.173  0.1624 -0.0404 -0.0335
16071W        W47287  21.844   5.378   2.448 -0.0816 -0.0833 -0.1345
16072W        W47288  11.859   2.132   2.400  0.0599 -0.0383  0.1047
16073W        W47289   0.420   1.185   9.981  0.2353  0.1821  0.0245
16074W        W47290  17.458  14.504   8.075  0.1890  0.0754 -0.3565
16075W        W47291  20.571  23.178   0.517  0.0265 -0.0578  0.2245
16076W        W47292  26.029  14.343   2.345 -0.0733  0.2396 -0.1747
16077W        W47293   5.165   8.096   0.334 -0.1532 -0.0687  0.1689
16078W        W47294   3.734  17.958   9.674  0.1631  0.1090  0.1931
16079W        W47295  19.923   5.403   1.463 -0.0988  0.2730  0.0200
16080W        W47296  26.304  11.185   8.625 -0.0488  0.0899  0.1711
16081W        W47297  19.800   2.269   3.258  0.0125 -0.1294 -0.0158
16082W        W47298  25.612  27.206   1.161 -0.1950  0.1061  0.2012
16083W        W47299  24.424  11.674   2.035 -0.0031 -0.1988 -0.1793
16084W        W47300   7.157   3.420   0.518 -0.0158 -0.1170  0.3257
16085W        W47301   2.890  10.247   2.602  0.0043  0.4822  0.0312
16086W        W47302  25.455   0.763   0.872 -0.2728  0.1546  0.1971
16087W        W47303  10.753   2.498   8.001 -0.2052 -0.0585 -0.0990
16088W        W47304  10.223  13.985   9.486 -0.1998 -0.1694  0.0959
16089W        W47305   8.236   9.302   1.233 -0.2859  0.2613  0.0194
16090W        W47306  21.934  20.633   2.427  0.0577  0.1803  0.0023
16091W        W47307   6.787  22.017   0.409  0.1118 -0.1180 -0.0767
16092W        W47308  11.370  25.466   7.989 -0.1120 -0.3293 -0.0541
16093W        W47309  23.399   0.062   3.571 -0.1184 -0.1840 -0.2358
16094W        W47310   8.891  16.082   8.707  0.0969 -0.0169  0.1333
16095W        W47311  26.620  23.891   0.853 -0.0254  0.1995 -0.1758
16096W        W47312  17.991  12.132  10.188  0.0945 -0.1082 -0.0674
16097W        W47313  20.173  11.406  10.301  0.0353  0.0392 -0.3327
16098W        W47314   8.976   4.971   2.464  0.0653 -0.0237  0.1665
16099W        W47315  27.495  12.974   1.290  0.0897 -0.2206  0.5817
16100W        W47316  11.416  21.777   0.987 -0.0094  0.1606  0.0503
16101W        W47317   6.113  10.615   9.188  0.3286  0.2583  0.0015
16102W        W47318  17.609   2.559   0.023 -0.3490 -0.2442  0.1770
16103W        W47319   9.762  18.226   1.303  0.0650  0.5638  0.0468
16104W        W47320   4.678  23.340  10.184 -0.2923  0.1575  0.0397
16105W        W47321  23.763  14.098   1.083 -0.1911  0.0233  0.0922
16106W        W47322  27.620  12.423   2.300  0.1382 -0.2196 -0.0546
16107W        W47323   0.053   7.690   2.410  0.0073 -0.1197 -0.3450
16108W        W47324   6.137  20.884   1.402  0.0535  0.0064 -0.2444
16109W        W47325  26.233   5.429   1.598  0.0246 -0.1504 -0.2579
16110W        W47326  13.719  19.019   0.603 -0.1960  0.0469 -0.2247
16111W        W47327   4.000  18.696   1.250  0.0485  0.1330 -0.0684
16112W        W47328  22.635  20.049   2.862  0.1946 -0.0920 -0.0905
16113W        W47329   1.013  24.093   1.752 -0.3055 -0.0252  0.4869
16114W        W47330   8.243   7.996   1.825  0.0595  0.2509 -0.2266
16115W        W47331  11.840  21.182   9.878 -0.1433  0.2091  0.2094
16116W        W47332  14.652  25.149   9.089 -0.0333 -0.0238 -0.0400
16117W        W47333  17.308  23.935   2.309 -0.2533 -0.0269  0.2081
16118W        W47334  12.943  24.686   9.999  0.0428 -0.4996  0.2584
16119W        W47335   7.799   1.768   7.565  0.0638 -0.0450  0.0106
16120W        W47336  24.059   4.061   2.278  0.2108  0.1558 -0.1455
16121W        W47337  12.335  19.361  10.020 -0.0085  0.2352 -0.0032
16122W        W47338  16.750   8.778   8.619  0.3279  0.0904  0.1152
16123W        W47339  25.397  21.888   8.872  0.0332 -0.0929 -0.1163
16124W        W47340   6.822   3.285   3.698  0.0334  0.1399  0.2372
16125W        W47341   5.658  23.204   0.980  0.1436 -0.1380  0.1451
16126W        W47342   6.616  18.906   7.553 -0.1583 -0.1122 -0.2075
16127W        W47343   9.758  24.820   8.956 -0.2222  0.2545 -0.1103
16128W        W47344   0.028   6.220   2.522  0.1062  0.3152 -0.1196
16129W        W47345  13.486  23.982   8.648 -0.3449  0.2659 -0.2027
16130W        W47346  17.914  10.970   3.251 -0.0723 -0.0305 -0.0885
16131W        W47347  22.162  23.462   9.981  0.2282 -0.0537  0.2395
16132W        W47348  11.807  12.171   1.788 -0.2246  0.0168  0.1620
16133W        W47349  12.660   5.308   2.776 -0.0801 -0.2880 -0.0174
16134W        W47350  17.350   5.172   1.217 -0.1361  0.2279 -0.1505
16135W        W47351   9.442   3.471   9.994  0.0528 -0.1988  0.0275
16136W        W47352   9.371  17.844   3.066 -0.1207  0.2775  0.3980
16137W        W47353   9.949  25.874   0.644  0.1576 -0.2392 -0.0130
16138W        W47354   9.665  14.108   2.420  0.0345  0.0339 -0.0521
16139W        W47355  16.655   2.025   1.148  0.3117  0.2095 -0.0049
16140W        W47356   6.746   0.338   2.158 -0.2455 -0.0126  0.0259
16141W        W47357  22.247  13.302   0.865  0.1787 -0.0659 -0.0747
16142W        W47358  17.706   2.332   3.999 -0.0523 -0.1857 -0.2612
16143W        W47359  17.726  26.913   2.611 -0.1373  0.0460 -0.0993
16144W        W47360  25.456  12.874   1.699  0.2822  0.2148  0.1602
16145W        W47361  14.923   8.247   6.825  0.1279  0.0236 -0.0276
16146W        W47362   8.796   2.266   2.071 -0.2503 -0.1392 -0.0460
16147W        W47363   5.781   1.144   2.091  0.0200 -0.1078  0.1469
16148W        W47364   8.077  24.664   8.249  0.0220  0.2596 -0.1082
16149W        W47365  24.158  20.452   2.070 -0.1373  0.1150  0.1251
16150W        W47366   3.040  27.289   3.978  0.0150 -0.2387 -0.2502
16151W        W47367   5.500  20.333   1.488 -0.2231 -0.0790  0.2072
16152W        W47368   1.493  25.428   8.466 -0.1213  0.2275  0.0190
16153W        W47369  20.857  14.520   7.420 -0.3523 -0.2110  0.1223
16154W        W47370  18.426  25.843   9.243 -0.2586 -0.0268  0.2037
16155W        W47371  18.397  18.154   9.905 -0.4918  0.4060  0.2390
16156W        W47372   9.235  13.069   9.929  0.1123 -0.2460  0.1005
16157W        W47373  21.642  25.163   9.877  0.2501  0.1832  0.2271
16158W        W47374  10.048  12.327   9.436 -0.1448  0.1088 -0.2805
16159W        W47375   9.291  12.327   1.936  0.2992 -0.0015 -0.1217
16160W        W47376  15.669  27.052   2.490  0.1677 -0.0194 -0.1031
16161W        W47377  12.046  20.118   2.413  0.3565  0.1239 -0.1580
16162W        W47378  15.927  18.353   0.322 -0.0149 -0.0436 -0.3243
16163W        W47379   3.054  26.593   8.176  0.2988 -0.0472  0.0212
16164W        W47380  11.793  20.543   1.955  0.0783 -0.4337 -0.0805
16165W        W47381  25.717   9.981   1.253 -0.0659 -0.0533  0.1930
16166W        W47382  25.195   1.619   2.527 -0.1512  0.0784 -0.1169
16167W        W47383   2.460  24.529  10.273 -0.2809  0.1919  0.1733
16168W        W47384  14.484  14.026  10.362  0.0978  0.2622  0.2483
16169W        W47385  24.535  16.700   8.765 -0.0140 -0.2636 -0.1310
16170W        W47386   3.846  23.407   1.394 -0.1571  0.4497 -0.0682
16171W        W47387   3.417  19.487   9.160  0.1034  0.0025  0.0459
16172W        W47388   8.540  21.719   8.105 -0.0802 -0.1810  0.1249
16173W        W47389  23.476  20.406   8.041 -0.0626 -0.0204 -0.1938
16174W        W47390  18.802   9.594   0.151  0.1080 -0.1571 -0.1740
16175W        W47391  17.716   8.803   9.555  0.1740  0.1836 -0.0630
16176W        W47392  16.396   5.341   2.735 -0.0997 -0.1794 -0.0500
16177W        W47393   7.716  11.684   8.648  0.1935 -0.2985 -0.3406
16178W        W47394   5.861  10.662   2.178 -0.0386 -0.1866 -0.1425
16179W        W47395  22.867  20.003   9.067  0.0137 -0.0001 -0.0202
16180W        W47396  15.275   4.233   1.726 -0.2614  0.0890  0.2742
16181W        W47397   6.490   0.574   8.662 -0.1220 -0.2166  0.2163
16182W        W47398   3.625   4.719  10.130  0.1694 -0.0963 -0.0685
16183W        W47399  14.390   6.789   0.553 -0.2358 -0.2067 -0.0491
16184W        W47400  23.350   9.015   1.869 -0.0653  0.0156  0.3878
16185W        W47401   9.925  21.562   1.408 -0.3726 -0.0614 -0.0260
16186W        W47402  17.395  16.622   9.901 -0.3334  0.0471 -0.1035
16187W        W47403  19.947   8.549   8.306 -0.0850  0.1500  0.1189
16188W        W47404  17.759  20.299   8.713 -0.0986 -0.0875  0.0783
16189W        W47405  12.074  21.801   9.578  0.0855  0.0356  0.0064
16190W        W47406   5.685  17.171   8.058 -0.1298  0.4307 -0.2784
16191W        W47407  25.140   2.541   1.658  0.1591  0.1428 -0.0880
16192W        W47408  10.090   0.298   2.928  0.3956 -0.1623  0.0235
16193W        W47409  19.303   2.678   9.667  0.3410  0.0132  0.0188
16194W        W47410  14.636   3.666   0.030  0.0956 -0.4562 -0.0658
16195W        W47411  13.979   9.938   8.000  0.1284  0.0454  0.0655
16196W        W47412   9.158  25.117   1.592 -0.1488  0.0428 -0.1626
16197W        W47413   7.644   9.788   7.917 -0.1706  0.2032 -0.1761
16198W        W47414   5.086  21.617   9.678 -0.0329 -0.3738  0.3854
16199W        W47415   7.824   7.523   9.116  0.1079  0.1148 -0.2421
16200W        W47416   6.287   1.419   1.470  0.3141  0.1338  0.5478
16201W        W47417  14.969  25.540   9.054  0.0609 -0.0663  0.0799
16202W        W47418   4.050  14.349   6.706  0.1596 -0.0191 -0.1328
16203W        W47419  20.667   0.458   9.164  0.0751  0.0588  0.2643
16204W        W47420  19.016  14.864   3.237 -0.0678 -0.1100 -0.2214
16205W        W47421   0.592   0.862   2.910  0.0459 -0.0902 -0.4552
16206W        W47422   8.298  15.893   1.490 -0.0624 -0.0020 -0.0069
16207W        W47423  12.024   6.222   9.367  0.0608 -0.0978 -0.1642
16208W        W47424  20.423   2.201   0.666  0.5610 -0.0522  0.2200
16209W        W47425  12.615   4.236   8.458  0.1122  0.1825 -0.1312
16210W        W47426  22.525  11.508   1.653  0.0867 -0.2077 -0.1212
16211W        W47427   7.687  17.285   0.074  0.0137 -0.0876 -0.0560
16212W        W47428   8.846   9.436   8.656  0.0035 -0.3859  0.2460
16213W        W47429  12.142  21.925   7.860 -0.1152  0.0722 -0.1515
16214W        W47430  27.526   4.152   0.981  0.0658 -0.4637  0.2688
16215W        W47431   6.845  16.079   8.637 -0.1241  0.2163  0.1417
16216W        W47432  18.631  15.068  10.204 -0.0175 -0.2668  0.3340
16217W        W47433   2.679  14.812   7.904  0.0576 -0.1987  0.0612
16218W        W47434   9.703   4.673   2.424  0.4215  0.0407  0.1446
16219W        W47435  12.913   3.719   0.547  0.1493  0.4803  0.0310
16220W        W47436  18.435  21.501  10.253  0.0890  0.2258 -0.2348
16221W        W47437  10.637  17.008   3.076 -0.1652 -0.1185  0.3706
16222W        W47438   9.486   3.913   0.184 -0.1490 -0.0712  0.3272
16223W        W47439  16.928  15.277   0.039  0.1389 -0.2595 -0.1488
16224W        W47440   4.126  24.293   3.879  0.1659  0.0341  0.2570
16225W        W47441  24.581  24.671   9.273  0.3778 -0.1617  0.1185
16226W        W47442   3.620   9.763   8.088 -0.1187 -0.4501 -0.3116
16227W        W47443  11.346  22.621   1.469 -0.5509  0.0813 -0.0256
16228W        W47444   1.470   7.215   9.796  0.3066  0.1006  0.2719
16229W        W47445  26.050  16.427   9.737  0.0992 -0.0422  0.0517
16230W        W47446   3.454   7.602   1.030 -0.1857  0.0788  0.0606
16231W        W47447   1.524   0.928   3.058  0.2675  0.3660  0.1007
16232W        W47448   3.329   6.461   2.329  0.0373 -0.0336 -0.2016
16233W        W47449  11.734  22.035   8.810 -0.0839  0.1099  0.0530
16234W        W47450  14.421   8.094   8.348  0.3341  0.3357  0.0729
16235W        W47451   2.747   8.696   1.880 -0.1658  0.1152  0.0718
16236W        W47452   8.771  14.229   0.273 -0.3415  0.0572  0.0482
16237W        W47453  16.290   8.802   8.571  0.0214 -0.1030 -0.0883
16238W        W47454  24.197  17.369   0.454 -0.2074  0.1164 -0.0141
16239W        W47455  12.297  14.711   1.097 -0.2419 -0.3799  0.2868
16240W        W47456  12.712  23.302   9.506 -0.1983 -0.3257  0.3068
16241W        W47457  25.851  26.602   9.634 -0.0953  0.0215 -0.4450
16242W        W47458  19.915   2.715   7.416 -0.0702  0.2590 -0.0295
16243W        W47459  10.070  21.402   7.145 -0.3195  0.2443 -0.0417
16244W        W47460  12.641   6.086   7.870 -0.2226 -0.0290  0.1037
16245W        W47461  11.329  26.406   2.235 -0.1115  0.1081 -0.0598
16246W        W47462  19.668   6.651   0.879  0.2519 -0.0949  0.2529
16247W        W47463  20.520  21.246   9.846  0.0907 -0.0876 -0.0646
16248W        W47464  20.537  10.987   2.808  0.1579  0.0053 -0.1808
16249W        W47465  10.870  13.129   3.187 -0.1325  0.0292  0.2989
16250W        W47466   9.141  18.417   8.653 -0.1575 -0.1945  0.2020
16251W        W47467   2.279   4.508   0.884  0.2335 -0.0642  0.2489
16252W        W47468  23.959   3.756   1.936  0.1506 -0.1838  0.1712
16253W        W47469  26.050   7.572   2.700  0.1006 -0.3080 -0.2004
16254W        W47470  20.915   6.101   8.066 -0.0365 -0.0906 -0.0534
16255W        W47471   9.213  24.642  10.225  0.0315 -0.4087 -0.0155
16256W        W47472   8.475   4.214   2.345 -0.1894 -0.3935  0.2085
16257W        W47473  21.457  10.590  10.360 -0.0740  0.1991  0.1109
16258W        W47474  20.562  18.491   0.723  0.1944  0.1129  0.0199
16259W        W47475   1.961  16.728   0.045  0.1056 -0.0120 -0.2045
16260W        W47476  15.611  14.726   1.943  0.1103  0.2690 -0.1049
16261W        W47477   2.074  11.086   2.680  0.0487  0.0634 -0.0379
16262W        W47478   4.884  16.612   7.453  0.1549  0.1806  0.3154
16263W        W47479   4.200  26.022   9.135  0.0477 -0.0431  0.0468
16264W        W47480  22.352  12.805   8.490 -0.0706  0.1476  0.2794
16265W        W47481   5.554  22.057   0.118 -0.1508  0.2071 -0.0953
16266W        W47482  25.674   2.967   1.462  0.1482 -0.4270 -0.1955
16267W        W47483  22.738  15.918   8.866  0.0827  0.0428 -0.0132
16268W        W47484   3.531  20.219   2.745  0.0304  0.0684  0.1306
16269W        W47485  19.915  14.014   7.468  0.1104 -0.1070  0.1340
16270W        W47486  23.081  21.228   1.965  0.0572 -0.1323 -0.3743
16271W        W47487  10.217   6.395   0.315  0.2105  0.1164 -0.2063
16272W        W47488   6.274  21.837   0.367 -0.2801 -0.1130  0.3282
16273W        W47489  20.402  18.189   8.498  0.0189 -0.1598  0.1828
16274W        W47490  26.512   3.624   9.902  0.0053 -0.2597 -0.1583
16275W        W47491   6.149  12.419   8.409  0.1864  0.0881 -0.1700
16276W        W47492  22.113  16.738   9.324 -0.2588 -0.1565  0.0373
16277W        W47493   3.643  25.915   8.436  0.3291 -0.1334  0.1704
16278W        W47494   4.955   3.137   2.392 -0.1913 -0.0397 -0.2256
16279W        W47495  23.003  17.057   9.448  0.3605 -0.1363  0.0954
16280W        W47496  18.089   1.831   0.182 -0.0205  0.0834  0.3651
16281W        W47497  10.585   1.862   2.214  0.1578  0.1484  0.1077
16282W        W47498   3.836  13.430   7.256  0.1084  0.1979  0.0901
16283W        W47499   6.573  15.101   9.588  0.1388 -0.1579 -0.1877
16284W        W47500  18.591  25.756   8.261 -0.3033  0.0388  0.1285
16285W        W47501  21.633   9.043   8.751  0.1131  0.1980  0.0810
16286W        W47502  17.479  10.972   8.650  0.3030  0.0233  0.0061
16287W        W47503  17.212   1.441   0.889  0.2352  0.0880 -0.1392
16288W        W47504  13.253  26.965   1.342 -0.2362  0.0094  0.1691
16289W        W47505  21.737   0.644   0.567  0.1188  0.0946 -0.1946
16290W        W47506  22.197  23.187   7.750  0.1826  0.0378 -0.1978
16291W        W47507   3.769  16.020   1.220 -0.4462 -0.0612  0.0960
16292W        W47508  17.959   8.888   2.764 -0.1277 -0.0473  0.0400
16293W        W47509   4.751  20.693   7.944  0.0322  0.0470 -0.0885
16294W        W47510  14.604   9.062   2.532  0.2755  0.1521  0.1400
16295W        W47511  23.538  21.943   0.095  0.1262  0.0198  0.1043
16296W        W47512  12.986  15.748   9.443  0.0694 -0.1064 -0.0032
16297W        W47513  20.256  10.568   2.709 -0.1843 -0.0513  0.1566
16298W        W47514  21.768   5.014   9.103  0.1033 -0.4569 -0.1965
16299W        W47515   3.617   6.333   8.929 -0.2210  0.2090  0.0698
16300W        W47516  22.489  24.487   8.261  0.2996 -0.0639  0.1441
16301W        W47517  19.374  16.297   0.433 -0.0007 -0.2269 -0.0515
16302W        W47518   6.501   5.503   8.282 -0.1298 -0.2784 -0.0358
16303W        W47519  17.014  15.560   9.315 -0.2924 -0.0185 -0.0916
16304W        W47520  17.807  23.260   8.207  0.0140  0.2532 -0.1631
16305W        W47521  27.617   9.344  10.012  0.2699  0.1322 -0.1726
16306W        W47522  15.794  26.483   0.363 -0.0636  0.0096 -0.0134
16307W        W47523   3.945  20.496   8.726 -0.0020  0.1709 -0.1652
16308W        W47524   9.291  11.131   1.225  0.1779  0.1440  0.1458
16309W        W47525  23.185  21.620   0.310  0.5891 -0.2329 -0.1418
16310W        W47526  14.674   4.575   0.617 -0.2346 -0.0084 -0.2132
16311W        W47527  24.266  24.835   8.482 -0.2591  0.2538  0.0193
16312W        W47528  11.448  14.755   8.680 -0.0811  0.1605  0.4089
16313W        W47529   6.019  17.134   1.437  0.2492  0.4011 -0.2628
16314W        W47530  27.220  19.450   1.946  0.0754 -0.2523 -0.0304
16315W        W47531   3.634  23.930   0.017 -0.0413  0.0938 -0.0916
16316W        W47532  18.527  10.751  10.155 -0.0422 -0.3140 -0.1880
16317W        W47533   5.880   2.551   3.164 -0.0058 -0.0945  0.0914
16318W        W47534  10.192   1.028   9.800  0.4459  0.1577 -0.4263
16319W        W47535  18.197   9.142   8.579 -0.0882  0.2800  0.0147
16320W        W47536  11.475   9.225   1.131 -0.0028  0.2209  0.1741
16321W        W47537  11.423  25.101   2.793 -0.1899  0.3751 -0.1288
16322W        W47538  14.661  24.371   0.782 -0.1342  0.4686 -0.1877
16323W        W47539   1.207   5.095   1.086  0.1035 -0.2055 -0.1643
16324W        W47540  23.066  12.181   0.509  0.0230  0.1085 -0.0948
16325W        W47541   2.973  22.872   8.852  0.1186  0.0853 -0.0022
16326W        W47542   1.509  14.959   9.906  0.1511  0.4514 -0.1220
16327W        W47543   0.923   7.090   0.100 -0.3053 -0.2876 -0.0998
16328W        W47544  25.119  23.198  10.023  0.1757  0.1300 -0.1039
16329W        W47545  14.887  13.489   2.430 -0.0507  0.0593 -0.2120
16330W        W47546  11.381  24.352   2.953 -0.1830  0.0785  0.1298
16331W        W47547  10.918   5.831  10.294  0.2218  0.1464 -0.0758
16332W        W47548   2.187  14.094   0.220 -0.0289  0.0472  0.0068
16333W        W47549   1.500  17.128   0.084 -0.1632 -0.2244  0.0956
16334W        W47550   6.507   0.222   9.923  0.0073  0.0308  0.3788
16335W        W47551  17.303  13.714   3.117  0.0187 -0.2727  0.0356
16336W        W47552  12.769   5.480   0.790  0.1123 -0.1975 -0.2732
16337W        W47553  13.703  26.901   1.163 -0.4708 -0.1319  0.0114
16338W        W47554  18.173   2.286   9.400 -0.1226  0.1428  0.0615
16339W        W47555   2.654   7.159   0.953 -0.0738  0.0724 -0.0897
16340W        W47556  20.622  10.013   8.559  0.0882  0.3051  0.3307
16341W        W47557  21.957  22.213   2.904 -0.0084 -0.3236 -0.2197
16342W        W47558  16.741  26.727   8.641 -0.2312 -0.0473 -0.2171
16343W        W47559  25.400  27.444   0.787  0.0326  0.0906 -0.1189
16344W        W47560   4.866  25.245   8.005 -0.3110  0.0798  0.1137
16345W        W47561   2.619  25.626   3.164  0.2473 -0.0696 -0.1056
16346W        W47562  15.276  21.434   3.808 -0.1146 -0.2089  0.0306
16347W        W47563  16.572  24.884   8.720  0.1601  0.0873 -0.2585
16348W        W47564   4.214   3.897   1.781 -0.0362 -0.0671  0.1738
16349W        W47565   6.359  22.364   8.166 -0.0815 -0.0967  0.2902
16350W        W47566  19.697  15.956   1.402  0.1627  0.5271 -0.1742
16351W        W47567   3.266  11.183   9.533 -0.3323  0.0717 -0.1891
16352W        W47568  13.260   5.216   2.125 -0.0573 -0.0301  0.2884
16353W        W47569  19.130   4.673   0.859  0.3371  0.0285  0.0393
16354W        W47570   9.956  21.436   9.626  0.1654 -0.1152  0.0116
16355W        W47571  21.368   5.901   0.287  0.2375 -0.2400 -0.0109
16356W        W47572  27.400   1.069   2.516 -0.3003 -0.3590  0.0595
16357W        W47573  19.589  25.496   7.962 -0.0997  0.2034 -0.1594
16358W        W47574  16.041  26.684   0.815  0.1341 -0.1591 -0.0619
16359W        W47575  11.435  13.248   0.196 -0.1739 -0.0550  0.2206
16360W        W47576   9.503   7.847   7.882 -0.0654 -0.0488  0.0092
16361W        W47577  10.915   3.309   0.095 -0.1630  0.0703 -0.1609
16362W        W47578   8.385   5.199   0.013  0.0314  0.1809 -0.0709
16363W        W47579  13.043  26.504   2.148 -0.1793  0.1493 -0.0662
16364W        W47580   9.491  19.483   8.986 -0.1799  0.1436 -0.1026
16365W        W47581  11.215  13.885   3.354  0.0027 -0.1795 -0.4156
16366W        W47582  25.815  21.478   0.533 -0.2087 -0.1348  0.2709
16367W        W47583  19.981  15.050   1.877  0.1657  0.1049  0.1800
16368W        W47584  15.658  13.651  10.069  0.2069 -0.1961 -0.0608
16369W        W47585  24.555   2.522   1.585 -0.3141  0.1152 -0.1072
16370W        W47586   2.033   6.340   9.197  0.3408 -0.0515  0.0476
16371W        W47587  15.557   4.881   9.518 -0.1300  0.1627 -0.1048
16372W        W47588  16.754  22.079  10.044 -0.1044 -0.2233 -0.0217
16373W        W47589  19.194   7.363   9.520  0.1434  0.0030 -0.0192
16374W        W47590   0.841  20.513   8.850  0.3711 -0.0735  0.0327
16375W        W47591  13.942   6.612   2.303  0.1305  0.1312 -0.0317
16376W        W47592  19.166   8.105   0.208  0.1627  0.1139 -0.2662
16377W        W47593  24.856  17.889   1.147  0.0120  0.1794  0.0914
16378W        W47594   1.929   8.772   9.861 -0.1187 -0.3084 -0.1364
16379W        W47595  21.873  27.373   7.370  0.1717 -0.2031 -0.1802
16380W        W47596   8.360   0.355   0.439 -0.0412 -0.3514 -0.0273
16381W        W47597  24.889  10.824   8.610 -0.0116  0.2450 -0.1744
16382W        W47598   5.696  15.036   9.856 -0.2027 -0.3143  0.0172
16383W        W47599  24.978  24.195   9.341 -0.0416  0.5332  0.0920
16384W        W47600   0.689  17.861   8.865  0.1445 -0.0931  0.2382
16385W        W47601   1.403   2.353   1.434  0.2574  0.2504  0.1016
16386W        W47602   6.111  14.882  10.227  0.3954 -0.1936 -0.1177
16387W        W47603  18.765  25.964   1.747  0.1352 -0.2788 -0.1597
16388W        W47604   8.967  19.652   9.522  0.0267 -0.1718  0.1840
16389W        W47605   1.107   9.614   9.133  0.1579 -0.0165 -0.1052
16390W        W47606   7.089  15.748   9.523  0.1079  0.0256  0.0952
16391W        W47607  22.958   6.094   0.285  0.0554 -0.2487  0.2578
16392W        W47608   3.528  21.486   9.521 -0.1743 -0.1602  0.4269
16393W        W47609  24.863  26.433   0.404 -0.1382 -0.1041 -0.0544
16394W        W47610  24.351  15.723   1.096  0.1014  0.0661 -0.0589
16395W        W47611   4.602  18.862  10.380 -0.0340  0.3771  0.0711
16396W        W47612   9.465  22.856   9.695  0.1323 -0.1302  0.1475
16397W        W47613   3.357  17.541   0.871 -0.1994  0.0912  0.3206
16398W        W47614   1.963  15.504   2.213  0.2485  0.3424  0.0977
16399W        W47615   3.365  23.881   9.822 -0.2439 -0.0945 -0.0068
16400W        W47616   5.340  24.169   3.542  0.0887  0.0689 -0.0894
16401W        W47617  21.890  10.462   1.549 -0.0200  0.1443 -0.0325
16402W        W47618  15.510  10.087   0.082  0.0001 -0.1580  0.1515
16403W        W47619  19.144  21.462   0.376 -0.1344  0.0958 -0.1675
16404W        W47620  11.075  25.160   0.599  0.1723 -0.3458  0.0393
16405W        W47621   3.731  21.774   1.371 -0.0156  0.0073 -0.2486
16406W        W47622  13.520  15.719   2.196 -0.0040 -0.3085  0.1961
16407W        W47623  22.487   6.259   8.821  0.3528 -0.1269  0.0437
16408W        W47624  22.025  23.980   9.725  0.0196 -0.0441 -0.0045
16409W        W47625   1.850  23.209   8.437  0.1412 -0.0213  0.1785
16410W        W47626  15.423  17.356   9.555  0.3033  0.0761 -0.0765
16411W        W47627   6.448  22.871   8.300 -0.1659 -0.0457 -0.0050
16412W        W47628  13.283  18.629   8.579  0.1460  0.2285  0.0942
16413W        W47629  16.660   5.952   0.266 -0.2348  0.0100  0.1078
16414W        W47630  23.454  22.310   2.562 -0.0039  0.0250 -0.2176
16415W        W47631   2.806  10.021   7.836  0.2661  0.0896  0.0166
16416W        W47632  11.950  21.683   9.091 -0.2516  0.6100  0.0510
16417W        W47633  13.529  22.417   3.610 -0.1469 -0.0988  0.0496
16418W        W47634  14.847  25.370   1.999 -0.4185 -0.2530 -0.3753
16419W        W47635  12.004  20.317   8.154  0.4298 -0.0383  0.1714
16420W        W47636   9.130  18.925   8.780 -0.4000  0.1818  0.1732
16421W        W47637   7.832   5.229   9.401  0.0940 -0.2855 -0.0584
16422W        W47638   5.477  23.330   8.767 -0.0059 -0.1309  0.3432
16423W        W47639  23.161  26.862   2.345 -0.1101 -0.0328 -0.1341
16424W        W47640  10.110  13.589   8.517  0.0052  0.0351 -0.1126
16425W        W47641  16.024  16.675  10.455  0.1663 -0.1327 -0.2082
16426W        W47642  16.557  14.462   9.470 -0.0623  0.1272  0.0550
16427W        W47643  21.732  27.513   9.928 -0.1412 -0.1158 -0.3177
16428W        W47644  26.712   5.005   3.246 -0.0242 -0.1811 -0.0847
16429W        W47645  13.695   1.184   8.897 -0.1776  0.0432  0.0516
16430W        W47646   7.656   7.585   7.838 -0.3380 -0.0523  0.0495
16431W        W47647  16.501   4.297   0.407  0.1191 -0.1045  0.2657
16432W        W47648  14.707   6.012   2.612  0.1248  0.2074 -0.0285
16433W        W47649  22.002  15.072  10.522 -0.0518  0.0386  0.1781
16434W        W47650  14.236  10.970   9.277 -0.0619  0.3356 -0.0493
16435W        W47651   9.306  12.281   2.489 -0.3084  0.0992  0.1051
16436W        W47652  12.774  14.204   7.897 -0.0562 -0.0512 -0.1565
16437W        W47653  22.750  11.978  10.098  0.4231 -0.2549 -0.1058
16438W        W47654  14.079  11.760   2.562  0.0883 -0.0558  0.2292
16439W        W47655   9.497   8.745   7.466 -0.0010  0.1456 -0.1534
16440W        W47656   8.159  27.257   0.659  0.1402  0.0632 -0.1982
16441W        W47657  15.846  12.724   2.887 -0.0361  0.0169 -0.1455
16442W        W47658  26.898  21.756   0.559 -0.2664 -0.2860  0.0635
16443W        W47659  11.567  18.276   8.332 -0.1090 -0.0182  0.2525
16444W        W47660   1.317  21.195   2.029  0.1225  0.0285  0.0435
16445W        W47661   7.522   9.735  10.218 -0.0490  0.0691 -0.0352
16446W        W47662  12.643  17.343   7.637 -0.2661  0.1853  0.1851
16447W        W47663  25.372  17.166   3.253  0.1079 -0.0145 -0.1578
16448W        W47664   9.648  22.100   8.421 -0.0768 -0.0635 -0.0935
16449W        W47665   7.340  16.457   3.042 -0.2209  0.0376 -0.2143
16450W        W47666  20.404   9.807   8.967  0.2856 -0.4220 -0.0937
16451W        W47667   7.645  13.274   1.181  0.0175 -0.1003  0.0402
16452W        W47668   6.971  14.228   9.805  0.0289  0.0428 -0.0660
16453W        W47669  24.814   6.918   9.446 -0.1088 -0.0866 -0.4462
16454W        W47670  22.854  21.019   7.622 -0.2136  0.1981 -0.1350
16455W        W47671   7.537   5.551   9.696  0.0640 -0.0573 -0.0075
16456W        W47672   8.500  16.637   1.855 -0.0228 -0.3899 -0.5094
16457W        W47673   5.377   9.899   2.402 -0.1619 -0.1822  0.0851
16458W        W47674   1.336   7.303   1.833 -0.0961  0.2028  0.0344
16459W        W47675  21.717  21.702   0.358 -0.0973 -0.4304 -0.1093
16460W        W47676  10.663   0.647   0.840 -0.4270 -0.0905 -0.0368
16461W        W47677   9.103   3.509   2.356 -0.0065 -0.1486  0.2459
16462W        W47678  26.834  16.166   7.921  0.3827  0.1323  0.0342
16463W        W47679   7.029  13.473  10.448 -0.1815 -0.0588 -0.0139
16464W        W47680  17.307   9.081   7.680 -0.2539  0.0819  0.3638
16465W        W47681  18.249  18.293   0.283  0.0790 -0.1755 -0.0434
16466W        W47682   3.221   4.037   9.433 -0.1887  0.2216  0.2006
16467W        W47683   3.996  11.559   9.830 -0.1871  0.2550  0.4389
16468W        W47684  16.924   2.084  10.217 -0.0405  0.2356 -0.3330
16469W        W47685  19.943  15.573   2.888  0.0076 -0.0089  0.1728
16470W        W47686  17.906  27.254   9.335  0.1268 -0.0332  0.2245
16471W        W47687  15.513   2.850   8.546  0.2574  0.2000 -0.2287
16472W        W47688  20.541  21.433   1.326 -0.4431  0.1023 -0.0119
16473W        W47689  20.042  19.795   8.286 -0.3398 -0.0181 -0.2692
16474W        W47690  26.936   3.966   3.910  0.0984  0.2437 -0.0990
16475W        W47691  18.438  25.270   0.549 -0.1897 -0.1420 -0.1899
16476W        W47692  19.342  17.138   7.727 -0.1692 -0.0818  0.0916
16477W        W47693   8.891  24.731   2.491 -0.0740 -0.0445 -0.0882
16478W        W47694  23.035  15.545   0.182  0.0679  0.0771  0.3340
16479W        W47695   7.074  26.132  10.321 -0.1792  0.3351 -0.0655
16480W        W47696   8.299   7.531   1.613 -0.2238 -0.1747 -0.2652
16481W        W47697  24.644   6.397   2.212  0.1252 -0.1881 -0.0197
16482W        W47698  13.449  16.263   8.664  0.0652 -0.0273 -0.0331
16483W        W47699   8.042  19.555   9.358  0.1040  0.0142  0.0985
16484W        W47700  25.368   3.438   8.860 -0.0180 -0.1197 -0.0759
16485W        W47701   9.914   1.923   2.632  0.1456 -0.3683  0.1839
16486W        W47702  21.790  20.561  10.436  0.0911  0.1133 -0.1955
16487W        W47703   2.209  26.582   1.118  0.1763 -0.1381  0.0142
16488W        W47704   7.625  12.311   9.840  0.0325  0.2779  0.0094
16489W        W47705  18.572  25.167   2.079 -0.0602  0.1535  0.0921
16490W        W47706   1.534   2.500   9.398 -0.0960 -0.1318 -0.4499
16491W        W47707   2.341   0.657   3.245 -0.1877  0.2453 -0.1466
16492W        W47708  23.041  14.539   3.098  0.0760 -0.0169 -0.0399
16493W        W47709  26.623   1.852   0.646  0.1177  0.0222  0.1477
16494W        W47710  11.490   0.412   3.813  0.2548  0.2530  0.1604
16495W        W47711  24.172  14.403   0.842  0.5434  0.3380 -0.1109
16496W        W47712  16.958  25.635   1.325 -0.3482  0.0505  0.1902
16497W        W47713  15.117  13.559   3.654 -0.1838  0.3160  0.4963
16498W        W47714   5.215  18.139   0.840  0.0271 -0.0384 -0.3620
16499W        W47715   0.420   0.750   8.289 -0.1330  0.1850  0.0996
16500W        W47716   6.211  18.367   3.122 -0.2147 -0.0044 -0.1661
16501W        W47717   5.614   7.935   7.713  0.1482 -0.0384  0.0330
16502W        W47718  18.470  17.139   9.998  0.0684 -0.2241  0.0156
16503W        W47719  11.589  17.324  10.378 -0.3665  0.0155  0.0017
16504W        W47720  14.454  25.289   9.568  0.0682 -0.4034  0.3220
16505W        W47721   0.229   0.440   0.129 -0.0011 -0.0148  0.0279
16506W        W47722  24.750   0.081   9.165 -0.0390  0.1533 -0.2062
16507W        W47723  12.719  11.050   1.586  0.0527  0.1553  0.1074
16508W        W47724  19.144  18.496   9.601  0.1505 -0.3610 -0.2780
16509W        W47725  20.164  10.480   2.247 -0.1128  0.0619  0.1233
16510W        W47726  22.792   9.942   9.142  0.1005 -0.0109 -0.0863
16511W        W47727   1.483   3.896   1.899  0.0643  0.1413 -0.2285
16512W        W47728  20.880   6.041   2.798 -0.0232  0.2446 -0.1051
16513W        W47729  24.594  21.141   0.357 -0.1640 -0.0233 -0.2674
16514W        W47730  25.921  27.110   9.776 -0.2222  0.1285  0.0489
16515W        W47731   8.355  21.094   7.593  0.1115 -0.1266  0.1359
16516W        W47732  12.440   0.535   1.225  0.0037  0.1277  0.2061
16517W        W47733  26.781  26.530   8.435 -0.1892 -0.1064 -0.1078
16518W        W47734  21.179  25.468   9.637  0.0955 -0.0162 -0.1844
16519W        W47735  18.327   3.949   0.756  0.2429 -0.1856 -0.1880
16520W        W47736  12.337  23.649   0.307  0.3465 -0.2345 -0.1167
16521W        W47737   0.526  10.042   0.734  0.2224  0.1117 -0.3822
16522W        W47738  10.494  13.163   2.867  0.1090 -0.1380 -0.6173
16523W        W47739   2.259  17.008   8.760 -0.2346 -0.0407  0.1897
16524W        W47740   9.994   2.271   2.984 -0.2856  0.0674  0.3678
16525W        W47741  10.109  20.718  10.090 -0.1375 -0.0396 -0.1553
16526W        W47742   3.165  21.887   7.964  0.2995  0.2287  0.2186
16527W        W47743  19.532  23.250   0.515  0.1448  0.1332  0.0022
16528W        W47744   7.905  18.236   1.302 -0.3103  0.0042  0.1626
16529W        W47745   7.025  18.342   8.349  0.2716  0.0730 -0.2310
16530W        W47746  14.019  27.085   9.360 -0.1947  0.0572  0.2003
16531W        W47747   6.292   4.609   2.211  0.2416 -0.2745 -0.0179
16532W        W47748  10.866   1.937   3.329 -0.1632 -0.1252 -0.2204
16533W        W47749   8.937   9.270   0.748  0.0887 -0.0459  0.0708
16534W        W47750  13.574  11.911  10.112 -0.1537 -0.0142 -0.0393
16535W        W47751  14.888  26.439   0.857 -0.0451 -0.1764 -0.0116
16536W        W47752   4.304  12.665   7.925  0.1712  0.0392 -0.1603
16537W        W47753   4.043   6.277   8.586 -0.1302  0.5654 -0.1650
16538W        W47754   6.807  22.296   9.296 -0.0661 -0.0932  0.2195
16539W        W47755  26.154   1.419   3.018  0.0871  0.0420 -0.3332
16540W        W47756  10.248   4.854   0.808 -0.2444  0.2535 -0.2611
16541W        W47757   1.817  22.635   0.748 -0.0041  0.2549  0.0031
16542W        W47758  10.981   7.286   9.100 -0.1209 -0.0615  0.1859
16543W        W47759  23.926   2.448   8.097 -0.5494  0.4337 -0.0174
16544W        W47760  14.923  18.167   2.731  0.1413  0.2040  0.0661
16545W        W47761  11.574  15.160   2.733  0.0431 -0.1394 -0.1674
16546W        W47762  21.709  18.093   0.316  0.0061 -0.2553  0.0533
16547W        W47763  15.955   9.847   7.373  0.0139  0.0608  0.1344
16548W        W47764   3.444  15.418   3.010  0.0811  0.2405  0.1668
16549W        W47765  14.282  18.180   0.886  0.0698 -0.3661 -0.2032
16550W        W47766  20.746  17.779   9.749 -0.3838 -0.1646 -0.0601
16551W        W47767   1.963  10.904   2.149 -0.2463 -0.2859 -0.2998
16552W        W47768  14.763  10.748   9.940 -0.3568  0.0522  0.1802
16553W        W47769  17.693   4.568   0.384  0.0659  0.2688 -0.1559
16554W        W47770  19.067   1.372   1.106  0.5087  0.0317 -0.0493
16555W        W47771   9.688  21.230   0.860 -0.1035 -0.2185  0.0837
16556W        W47772  12.838   3.806   8.271  0.0513 -0.1756  0.1923
16557W        W47773  17.963   6.153   2.712  0.1527  0.2314 -0.0223
16558W        W47774  18.456  22.740   1.666 -0.3592  0.1945 -0.0154
16559W        W47775   9.069   7.252   0.092  0.0639 -0.2772 -0.1267
16560W        W47776  26.907   4.475   0.305  0.1581 -0.0364 -0.4556
16561W        W47777  26.460  15.896   2.093  0.0866  0.1745 -0.0627
16562W        W47778   8.660   2.746   0.844 -0.0712  0.2914  0.2009
16563W        W47779  13.965  16.860   9.346  0.0686 -0.0826  0.0420
16564W        W47780   9.420  16.306   0.928 -0.1018  0.2245 -0.2212
16565W        W47781  15.133  24.004   1.465  0.1807  0.1825  0.1763
16566W        W47782  20.907   8.480   1.449  0.2015  0.0296  0.3411
16567W        W47783  20.312   7.877   7.211 -0.0130 -0.2068 -0.2258
16568W        W47784  15.678  26.460  10.436  0.3986 -0.2211  0.1372
16569W        W47785  13.345  11.848   8.619  0.0218  0.1170  0.0735
16570W        W47786   8.615  19.764   9.224 -0.0852  0.1085  0.3139
16571W        W47787  26.228  14.016   0.494  0.0484 -0.2019  0.3514
16572W        W47788  18.313  27.046   2.141 -0.0157  0.1924  0.2095
16573W        W47789  22.663   7.596   2.701  0.3378  0.1783  0.0856
16574W        W47790  10.012  10.385   8.440 -0.0214 -0.0519  0.0325
16575W        W47791  21.884   0.474   1.992  0.1486  0.1039  0.0688
16576W        W47792   2.405  20.236   9.916 -0.1087 -0.1467 -0.1624
16577W        W47793   4.380  18.153   0.316  0.1201  0.0063  0.2023
16578W        W47794   6.971   9.908   0.352  0.1897  0.1266 -0.0724
16579W        W47795  19.036  19.920   2.310 -0.2676  0.0225  0.0277
16580W        W47796   1.106   5.295   2.029 -0.1405  0.3920  0.0851
16581W        W47797  13.711  15.948  10.120  0.2722 -0.1864  0.1371
16582W        W47798   7.648  13.220   2.708  0.1992 -0.1027  0.1842
16583W        W47799  23.063  21.789   1.522 -0.0941  0.0293 -0.0538
16584W        W47800   6.677  27.489   0.966  0.1875 -0.3313 -0.3729
16585W        W47801  26.011  13.401   2.207 -0.0875 -0.1099  0.3432
16586W        W47802  24.732  21.723   8.262  0.2092 -0.0094 -0.2811
16587W        W47803  18.558   7.443   8.321  0.1266 -0.0894  0.0042
16588W        W47804   7.685  19.029  10.210 -0.5058  0.2566  0.3485
16589W        W47805  18.168  13.812   1.386 -0.2202  0.0734 -0.1762
16590W        W47806   3.951  21.037   9.059 -0.2014  0.0867  0.1979
16591W        W47807  19.483   5.307   2.197  0.0203 -0.1541  0.1332
16592W        W47808   4.996  14.600  10.106 -0.2284  0.0910 -0.0004
16593W        W47809  16.424  20.258   8.766  0.0297  0.2326  0.2816
16594W        W47810  25.532   9.165   3.591  0.0407  0.1402  0.0327
16595W        W47811  17.428  16.721   9.422 -0.1708  0.0919  0.1660
16596W        W47812  26.804  13.096   4.177 -0.4490  0.0013 -0.0821
16597W        W47813  14.987  12.368   8.179 -0.1154 -0.0686  0.0337
16598W        W47814  26.115  24.963   8.102  0.0397 -0.1274  0.0348
16599W        W47815  20.761  11.729   8.923  0.2045 -0.2280 -0.1657
16600W        W47816  14.911  16.955   8.990  0.3272  0.0585  0.2515
16601W        W47817  14.404  16.064   8.878 -0.0960  0.0650  0.4833
16602W        W47818   9.806   6.048   0.297 -0.1426  0.2140  0.0470
16603W        W47819  12.121  24.314   2.030 -0.4953  0.2258 -0.1641
16604W        W47820   7.473   7.710   8.856  0.4742  0.0128 -0.1588
16605W        W47821  16.374  13.617   8.030 -0.4855  0.0161 -0.1181
16606W        W47822  19.655   0.151   9.892 -0.1053 -0.0989 -0.0179
16607W        W47823  25.806  12.181  10.138 -0.1901  0.1455 -0.1080
16608W        W47824  12.424  22.399   3.056  0.1928 -0.0555 -0.1297
16609W        W47825  18.572  14.651   2.905 -0.1993 -0.2501 -0.0716
16610W        W47826   3.177   4.148   1.868  0.2090 -0.0867 -0.1375
16611W        W47827   1.293   0.952   1.656 -0.1668  0.0392 -0.0170
16612W        W47828  14.714   2.948   9.700 -0.1765 -0.1770  0.3787
16613W        W47829  12.808   6.671   9.129 -0.1041  0.1010  0.0812
16614W        W47830   8.930   7.198   9.527 -0.2194 -0.0875 -0.1052
16615W        W47831   7.646  24.916   1.791 -0.2776  0.2605  0.1491
16616W        W47832  13.858  19.442   1.966  0.2690  0.1137  0.0999
16617W        W47833  24.257  22.822   1.976 -0.0557 -0.1123  0.3892
16618W        W47834  25.490   5.142   2.989  0.3586 -0.0321  0.5092
16619W        W47835  18.440  22.516   8.444 -0.2598 -0.0170 -0.0669
16620W        W47836  18.429  17.930   1.375  0.0732  0.1962  0.0918
16621W        W47837   4.163  25.598   2.503 -0.3408  0.0134 -0.2477
16622W        W47838   9.066  27.164   8.696  0.0135 -0.0026  0.0428
16623W        W47839   6.962   3.451   9.748  0.0719 -0.0007  0.2335
16624W        W47840  15.848   6.589   2.633 -0.1959 -0.0218  0.0349
16625W        W47841  18.143  15.389   7.396 -0.4196  0.0206  0.3213
16626W        W47842  12.546   0.082   2.427  0.1640  0.0639  0.3608
16627W        W47843  15.147   4.363   0.576  0.0170 -0.0986 -0.1077
16628W        W47844  18.893  12.117   1.114 -0.0214  0.0506  0.4600
16629W        W47845   1.735   8.646   2.646  0.0501  0.2654 -0.2178
16630W        W47846   8.028  13.331   2.380 -0.2779 -0.1224  0.0219
16631W        W47847   8.744  18.055   1.231  0.0668  0.1639  0.1028
16632W        W47848   7.354  16.718   7.963 -0.1911  0.0018 -0.0649
16633W        W47849   7.172  22.489   0.203 -0.2951  0.2086  0.1845
16634W        W47850  24.579  22.107   8.539  0.1196 -0.2391  0.1809
16635W        W47851  10.118   7.408   3.863  0.0874 -0.1692 -0.0327
16636W        W47852   8.353  10.509   9.983 -0.0833 -0.2171 -0.3698
16637W        W47853  18.620  23.343   2.052 -0.2491  0.0092 -0.1657
16638W        W47854  16.127  20.363   1.978  0.3191  0.2160  0.0895
16639W        W47855  19.649  21.657   8.225 -0.0770 -0.1535  0.1156
16640W        W47856  16.313  19.930   9.206  0.2938  0.0601 -0.2761
16641W        W47857  13.091  17.651   1.624 -0.1934  0.1825 -0.2595
16642W        W47858   7.536  11.132   2.186  0.2939  0.2843  0.0117
16643W        W47859  18.779   7.510   1.761 -0.2613  0.2077  0.2153
16644W        W47860  23.167  26.196   2.685  0.0554 -0.1348 -0.3324
16645W        W47861   0.743  14.940   3.165  0.1449  0.0026  0.1885
16646W        W47862   6.615  10.299   0.376 -0.3665 -0.1677  0.2588
16647W        W47863  20.840  15.498   0.555  0.0623 -0.2001 -0.0766
16648W        W47864  13.588   2.322   1.818 -0.1923 -0.1196 -0.2136
16649W        W47865  19.876   8.937   7.973 -0.3381  0.3221  0.3531
16650W        W47866  27.321  15.241   1.040  0.3903 -0.0617  0.2582
16651W        W47867  10.630   8.777   8.356  0.1054 -0.3048 -0.2527
16652W        W47868  22.359   7.409   2.252  0.0066 -0.1553 -0.0936
16653W        W47869   0.980   9.601  10.021  0.0052 -0.2263  0.2486
16654W        W47870   7.527  11.422   0.668  0.1414  0.1336  0.2514
16655W        W47871  10.474  26.372   9.800 -0.0978 -0.0187 -0.1571
16656W        W47872  22.658  15.556   9.226  0.0313 -0.3259  0.2217
16657W        W47873   4.448  12.029   9.113 -0.2483 -0.1458 -0.2065
16658W        W47874  15.848   2.345   0.966  0.2474  0.0018  0.0509
16659W        W47875  19.812   7.811   2.717  0.3770 -0.0629 -0.0995
16660W        W47876   5.117   6.879   2.635  0.0533  0.1193  0.0393
16661W        W47877   0.736  22.407  10.272  0.0409 -0.4170  0.1862
16662W        W47878  11.192  22.463   1.969 -0.1868 -0.2049  0.0691
16663W        W47879   0.336  22.396   1.885 -0.1658 -0.1458 -0.2926
16664W        W47880  12.836  23.112  10.000 -0.0262  0.4052 -0.1187
16665W        W47881  17.676  20.559   0.093 -0.2042 -0.3568  0.0100
16666W        W47882  14.885   0.243   4.209  0.1427  0.2070 -0.6289
16667W        W47883  14.626  18.044  10.430  0.0589 -0.4567 -0.0493
16668W        W47884   8.731   5.767   9.864 -0.0935  0.1167 -0.1489
16669W        W47885  19.952  21.868   9.404  0.1561  0.0371  0.0095
16670W        W47886  17.827  15.916   1.861 -0.0163  0.1956 -0.0761
16671W        W47887   9.044   0.073   7.830 -0.1205  0.0397 -0.5007
16672W        W47888  24.103   2.027   7.803  0.1276 -0.0666 -0.1224
16673W        W47889  18.731   0.708   8.556  0.2326 -0.1586 -0.0653
16674W        W47890  22.831  14.264   8.394 -0.0652 -0.0999  0.0780
16675W        W47891  17.768  12.061   0.163 -0.1356  0.2108 -0.2780
16676W        W47892   5.713   2.019   8.028 -0.2906 -0.0249 -0.1261
16677W        W47893  19.771   8.762   7.232  0.1609 -0.0324 -0.2832
16678W        W47894  12.378  23.695   3.267  0.0674  0.2105  0.0194
16679W        W47895   8.934   4.859   0.377 -0.1153  0.2073 -0.2654
16680W        W47896  11.538   0.880   2.108 -0.3879 -0.0139 -0.2158
16681W        W47897  13.238  24.236   0.714  0.2808  0.1595 -0.0427
16682W        W47898  20.466  18.098   3.643  0.0093  0.1285 -0.5268
16683W        W47899  19.059  10.544   3.541 -0.2476 -0.1527 -0.0484
16684W        W47900  10.955  16.677   2.785  0.2019 -0.2278 -0.3038
16685W        W47901  25.908   9.881   1.937  0.1686 -0.1437  0.0792
16686W        W47902  12.288   1.758   0.878 -0.1453 -0.0041  0.2372
16687W        W47903   9.397  16.329   8.050 -0.0908  0.1662 -0.1475
16688W        W47904  24.151  23.149   3.464  0.1068 -0.2982  0.1652
16689W        W47905  23.073   4.609   9.012 -0.1074 -0.1214 -0.2632
16690W        W47906   1.711  21.355   3.322  0.2096  0.1150  0.0084
16691W        W47907  16.593  25.355   9.076  0.0173  0.2180 -0.2510
16692W        W47908  21.631   2.415   7.979 -0.3887 -0.2760  0.1440
16693W        W47909  25.978   5.608   8.652  0.0807  0.1613 -0.0353
16694W        W47910  24.430   9.343   7.465  0.1371 -0.0104  0.0901
16695W        W47911  21.872  18.715   7.830  0.0681 -0.0812 -0.0486
16696W        W47912   4.347   4.986   2.689  0.0565 -0.1783 -0.0941
16697W        W47913  21.716  16.361   0.372  0.1948  0.0766  0.2609
16698W        W47914   9.450  22.871   8.506 -0.0923  0.1157  0.0708
16699W        W47915   2.425  20.909   3.053 -0.2583  0.0287  0.0370
16700W        W47916  24.202  15.568   2.372 -0.4136 -0.3484 -0.2465
16701W        W47917  12.605   9.875   2.213  0.4287 -0.0587 -0.0424
16702W        W47918  11.890  21.325  10.327  0.0097 -0.1141  0.0516
16703W        W47919   5.878  20.115   8.724  0.0223 -0.1480  0.1273
16704W        W47920   1.276   8.630   1.342 -0.0903 -0.1390  0.0782
16705W        W47921  24.144  10.880   0.100  0.1429  0.1382  0.1836
16706W        W47922  20.918  14.452   9.035 -0.1787 -0.0149  0.1837
16707W        W47923  12.986  13.208  10.200 -0.4583 -0.3556 -0.1364
16708W        W47924  14.844  18.722   1.849 -0.1000  0.2319 -0.0527
16709W        W47925   4.781  12.216   3.191  0.1265 -0.1336  0.1690
16710W        W47926  17.025  18.563   1.991 -0.1000  0.0904  0.1315
16711W        W47927  16.452  10.210   2.819  0.0723  0.0393 -0.2470
16712W        W47928   4.941  27.114   7.941  0.1493  0.0406  0.1144
16713W        W47929  14.845   1.026   0.592  0.2169 -0.2779 -0.1196
16714W        W47930  11.661  26.367   8.375 -0.4188 -0.2701 -0.3473
16715W        W47931  23.879   4.544   0.498  0.3497  0.0320 -0.0006
16716W        W47932  15.071  14.024   7.450 -0.1368  0.1041  0.4016
16717W        W47933  17.574   7.040   2.399  0.0850 -0.1777  0.1743
16718W        W47934  13.731  21.037   3.536  0.4697  0.2467  0.1241
16719W        W47935  22.442   4.347   1.291 -0.1533 -0.1905  0.3875
16720W        W47936  19.207  24.557   8.835  0.0285  0.4796  0.0230
16721W        W47937  11.921   0.785   8.596  0.0712  0.0143  0.0389
16722W        W47938  11.630   7.811   9.576  0.0810  0.0787  0.2445
16723W        W47939   6.204   4.533   8.717 -0.2572 -0.0051  0.0730
16724W        W47940  15.258  11.797   8.315  0.2208  0.0170  0.1431
16725W        W47941  13.054  20.296   1.893  0.0721 -0.2174  0.2280
16726W        W47942  11.748  26.362   9.732 -0.2554 -0.0505 -0.0244
16727W        W47943  14.262  16.713   9.012 -0.1743  0.0122  0.0273
16728W        W47944  13.090   0.208   1.141 -0.2539  0.1800  0.1511
16729W        W47945  12.491  17.089   9.494 -0.1273 -0.2361  0.1538
16730W        W47946   7.633  16.951   8.734  0.1657 -0.2085 -0.0847
16731W        W47947  15.553  10.908   0.975  0.1705 -0.0725  0.0939
16732W        W47948  17.602  17.632   0.179 -0.0931  0.3482 -0.1931
16733W        W47949   1.678  15.488   7.948  0.2024  0.0027 -0.2681
16734W        W47950  20.991  16.276   2.662  0.0848  0.0353 -0.2681
16735W        W47951   9.268  25.968   1.016 -0.0579  0.0817 -0.2315
16736W        W47952  17.580  17.425   8.940 -0.0525  0.1311  0.0986
16737W        W47953   3.824  14.579   2.526  0.1629 -0.1920  0.4032
16738W        W47954  25.627  23.352   1.652  0.1464  0.1494 -0.2622
16739W        W47955   6.689   0.003  10.345  0.0279 -0.0536 -0.0948
16740W        W47956  20.931  13.561   2.605  0.3159  0.0128 -0.5520
16741W        W47957   6.076  24.640   9.597 -0.2806  0.0848  0.3647
16742W        W47958  19.645  25.672   8.455  0.1353  0.2871 -0.0550
16743W        W47959  22.950  12.674   0.605 -0.3689  0.0058 -0.0194
16744W        W47960  25.153  15.936   8.083 -0.0538  0.1332 -0.0640
16745W        W47961   1.610  25.653   3.750  0.2767 -0.0303  0.0462
16746W        W47962   6.049   7.039   1.349 -0.0290  0.5559 -0.2817
16747W        W47963   1.309   9.391   1.954  0.0244 -0.0285 -0.0293
16748W        W47964  19.564  27.178   1.128 -0.1953  0.2094  0.0636
16749W        W47965  26.867  25.248   9.217 -0.0316  0.1955  0.3679
16750W        W47966   8.450  25.224   9.412  0.3322 -0.1305 -0.0569
16751W        W47967  14.824  25.500   9.939  0.5944  0.2504 -0.2071
16752W        W47968  15.432   8.824   2.892 -0.2948  0.0847 -0.0293
16753W        W47969  20.584  15.339   8.904 -0.1282 -0.0065 -0.0774
16754W        W47970  21.458  17.027   1.341  0.4527 -0.4906 -0.0788
16755W        W47971   7.754  16.054   9.209  0.2540 -0.2225  0.0646
16756W        W47972  25.052  10.015   3.495  0.0919  0.1439 -0.0771
16757W        W47973   3.185   5.015   2.881  0.1194  0.2872  0.0248
16758W        W47974  15.315  23.263   2.701  0.1627 -0.2925 -0.0197
16759W        W47975  26.480  17.467   0.228 -0.2747 -0.1010  0.0432
16760W        W47976  12.410  25.048   0.174  0.2090 -0.0035  0.1264
16761W        W47977  22.465  13.764   8.702 -0.2037 -0.0885 -0.2285
16762W        W47978  11.736  21.849   0.173  0.0026  0.0683  0.2549
16763W        W47979   1.909  12.569   1.285 -0.4136 -0.0459  0.2172
16764W        W47980  14.183   6.006   1.720 -0.1369  0.1632 -0.1590
16765W        W47981  20.015  23.714   2.423  0.3970 -0.0191 -0.1164
16766W        W47982  11.170  10.429   8.375  0.0956  0.1165 -0.0738
16767W        W47983  26.139  25.095   1.320 -0.0247  0.4212  0.0906
16768W        W47984   4.174  22.177   0.978  0.0056  0.1842  0.0158
16769W        W47985  23.575   1.713   0.952  0.2407  0.0350  0.0642
16770W        W47986  22.838  24.441   1.222 -0.1250  0.1747  0.2569
16771W        W47987  23.339  24.866   1.509  0.2463 -0.2759  0.0472
16772W        W47988  19.002   7.469  10.514 -0.0079  0.1064  0.0264
16773W        W47989   5.298   2.286   8.393 -0.1582 -0.1376 -0.3388
16774W        W47990  11.708  16.284   2.878 -0.1165  0.0894 -0.0276
16775W        W47991  15.106  20.502   1.273  0.2003  0.0307 -0.1245
16776W        W47992   1.274   8.754   2.471 -0.0911  0.2749 -0.0745
16777W        W47993  15.278  25.629   7.943  0.0579  0.2287 -0.0510
16778W        W47994  11.490   8.404   0.057 -0.2878  0.0178  0.1179
16779W        W47995   5.895   2.053   3.205 -0.0042  0.2382  0.0694
16780W        W47996  26.959  14.963   1.479  0.2256 -0.3028 -0.0715
16781W        W47997   6.587  13.633   8.457 -0.0973  0.0472  0.0202
16782W        W47998  15.028   0.536   8.789 -0.1272  0.1507  0.0001
16783W        W47999  26.398   4.601   0.150  0.3588 -0.0409  0.1215
16784W        W48000  21.825  17.217   7.849 -0.0622  0.0430  0.0059
16785W        W48001  26.666   4.450   2.821  0.0283 -0.2571  0.0030
16786W        W48002  12.930  18.448   0.237  0.1198 -0.0250  0.2850
16787W        W48003  11.124   3.086   3.052 -0.0001 -0.0375 -0.0821
16788W        W48004   9.147   5.779   7.767 -0.1078 -0.1036 -0.1239
16789W        W48005  15.664   7.953   1.954 -0.2588  0.3190  0.0597
16790W        W48006  22.002  18.893   2.275  0.2044 -0.2884  0.1044
16791W        W48007   4.617   9.458   1.333  0.1949 -0.0345  0.1743
16792W        W48008  18.611  16.305   0.129 -0.2669 -0.0243 -0.0934
16793W        W48009   5.687  19.875   9.559 -0.1875 -0.1140 -0.1610
16794W        W48010  23.260  13.653   1.884 -0.1095 -0.0441 -0.1313
16795W        W48011  15.462  16.133   1.933  0.1651  0.1962  0.0486
16796W        W48012  10.359  16.952   0.495  0.2142 -0.2017  0.1223
16797W        W48013  20.713  25.310  10.132 -0.2577  0.1694  0.0212
16798W        W48014  22.197  20.303   0.743 -0.2382  0.1290  0.1849
16799W        W48015  18.702  14.259   8.440  0.0470  0.0528  0.0430
16800W        W48016   4.049   9.311   2.622  0.0097 -0.0080  0.0892
16801W        W48017  12.302  20.019   1.879  0.1708  0.0867  0.0634
16802W        W48018  19.027  10.670   0.949  0.1311 -0.1242 -0.0778
16803W        W48019  18.590  21.541   0.267  0.0363 -0.0065  0.1901
16804W        W48020  12.647   7.797   2.226 -0.0135 -0.0911 -0.2331
16805W        W48021  17.518  20.054   0.334  0.1852 -0.2129  0.2219
16806W        W48022  26.968  13.361   2.625 -0.3806 -0.0646 -0.2119
16807W        W48023  24.041  13.810   1.647 -0.0266  0.1874 -0.0912
16808W        W48024  23.778  13.643   8.908 -0.0022 -0.3935  0.2166
16809W        W48025  11.266  23.268   3.265  0.0669  0.2948  0.0216
16810W        W48026  13.111   5.280   1.142  0.0288  0.2414 -0.1595
16811W        W48027  22.488   4.084   9.858  0.1355  0.0045 -0.0554
16812W        W48028  14.145  16.531   8.058 -0.1283 -0.1611  0.2095
16813W        W48029  10.158  12.300   2.072 -0.1722  0.0540 -0.4574
16814W        W48030   7.164  11.760   0.852  0.1522 -0.1374 -0.2595
16815W        W48031  20.809  25.516   9.166  0.1418 -0.0102 -0.1188
16816W        W48032   9.485   0.181   0.553  0.0941 -0.2952  0.0035
16817W        W48033  25.652  16.461   2.194  0.0446  0.0911  0.0370
16818W        W48034  16.158  18.420   3.632  0.0170 -0.1196  0.2580
16819W        W48035  27.092  12.565   1.364 -0.3240 -0.2851 -0.0478
16820W        W48036   5.226   5.958   9.560  0.1906  0.0566  0.0063
16821W        W48037  18.407   3.862   7.989  0.0767 -0.2013 -0.1351
16822W        W48038  25.345  19.630   1.436 -0.1420  0.0717  0.1429
16823W        W48039  15.279  23.078  10.176 -0.2504  0.2434  0.1198
16824W        W48040  18.992   2.009   1.503 -0.0935  0.2639 -0.0088
16825W        W48041  23.834  19.708   1.295  0.0894 -0.2044  0.1870
16826W        W48042   3.593   6.044   1.009 -0.3020 -0.0932 -0.1236
16827W        W48043  21.731  17.638   0.690 -0.1335  0.0531  0.0321
16828W        W48044  25.298  20.476   9.770  0.0477  0.1602 -0.2997
16829W        W48045   0.380  15.114   1.984  0.1285  0.0422 -0.1932
16830W        W48046  16.189  20.194   7.874 -0.0146  0.0590  0.1719
16831W        W48047   4.816  17.752   0.843 -0.0186 -0.1300 -0.0601
16832W        W48048  26.308  13.102   0.626  0.1457 -0.0587 -0.0302
16833W        W48049  16.260  11.476   0.145 -0.0221 -0.0770 -0.0975
16834W        W48050  12.525   8.362   0.240 -0.0781  0.2209  0.0875
16835W        W48051   4.561   4.519   1.230  0.1080 -0.1353  0.1645
16836W        W48052  23.364   8.714   9.460 -0.1913  0.1807  0.0810
16837W        W48053  21.118   5.674   7.270  0.0932 -0.2112  0.2006
16838W        W48054   6.606  11.242   2.343  0.0897 -0.4151 -0.0353
16839W        W48055   1.394  19.291   1.570  0.1560  0.0670  0.2227
16840W        W48056   4.317   9.900   9.649 -0.0067  0.0083  0.3024
16841W        W48057  22.922  20.612   8.063 -0.0388  0.1492 -0.1979
16842W        W48058  17.871  17.479   9.402  0.0576  0.0777 -0.0362
16843W        W48059  22.408   2.160  10.457 -0.0979 -0.1373  0.0895
16844W        W48060   7.453   2.100   7.762 -0.0272 -0.2900  0.2735
16845W        W48061   6.624   9.702   9.379  0.1360  0.4224  0.3236
16846W        W48062  15.684   5.798   0.423 -0.0651  0.2024 -0.1435
16847W        W48063  16.562   2.918   1.433 -0.0732 -0.2110  0.0721
16848W        W48064   0.953   3.685   9.820  0.2251 -0.2194  0.2459
16849W        W48065   0.523   7.982   1.074 -0.2189 -0.1105  0.2556
16850W        W48066  15.317  15.580   2.249 -0.0934  0.3865 -0.1272
16851W        W48067  14.930  14.543   1.499 -0.0428  0.1802  0.3264
16852W        W48068   9.592   3.608   2.448 -0.1205  0.0042 -0.2339
16853W        W48069  22.510   5.805  10.297  0.1579  0.1043  0.2113
16854W        W48070  27.018  10.862   2.277 -0.3477 -0.1000  0.0556
16855W        W48071  17.910  26.508   8.455  0.0469 -0.0815  0.4384
16856W        W48072   1.176  22.257   9.968  0.1335 -0.5347 -0.0324
16857W        W48073   7.813  19.371   1.555  0.0686 -0.2045  0.1069
16858W        W48074  17.144   9.913  10.151  0.0146  0.1602 -0.0904
16859W        W48075   4.230   1.961   8.301 -0.1826  0.2146 -0.1007
16860W        W48076  18.544  25.026   1.257  0.0400 -0.0493  0.0533
16861W        W48077  22.423  24.723   0.610  0.0056  0.1412  0.0700
16862W        W48078   1.938  19.619   8.650 -0.2497  0.0672 -0.1309
16863W        W48079   2.306  23.960   1.805  0.1804 -0.1429 -0.2287
16864W        W48080   3.186  24.060   8.212 -0.0824 -0.1730  0.1412
16865W        W48081  16.029   2.800   2.189 -0.2899  0.1920 -0.1132
16866W        W48082  11.181  16.024   9.448 -0.1775  0.1291  0.2485
16867W        W48083  11.413   9.791   1.298 -0.1324 -0.2297  0.0953
16868W        W48084  22.505  11.380   9.341  0.1280 -0.0493 -0.1202
16869W        W48085   4.134  10.727   2.519  0.1020 -0.1147  0.0649
16870W        W48086  26.794   7.454   3.239 -0.0597  0.0036 -0.0938
16871W        W48087   9.150   3.055   1.720 -0.1604 -0.2453 -0.2725
16872W        W48088  26.979  18.366   3.352  0.0893  0.1500  0.1918
16873W        W48089   6.859  21.534   0.591  0.1678  0.2484  0.1110
16874W        W48090   0.674  13.934   7.955 -0.5750 -0.2746  0.1530
16875W        W48091   1.817   3.361   0.124 -0.0507 -0.0339 -0.1131
16876W        W48092  20.708   6.298   7.574 -0.1729  0.0853  0.1302
16877W        W48093   9.440  11.687   2.279  0.2899 -0.0657 -0.0834
16878W        W48094  17.186  22.778   9.681 -0.1018  0.1021 -0.0485
16879W        W48095   3.701  10.608   8.189 -0.0795 -0.2733 -0.0344
16880W        W48096  17.724  24.764   2.272 -0.0722  0.0421 -0.0832
16881W        W48097   8.923  16.287   2.498 -0.2131 -0.3340 -0.1140
16882W        W48098   9.485   6.296  10.434 -0.0180  0.0995 -0.0372
16883W        W48099  18.206  15.802   1.216  0.1433 -0.0432 -0.1390
16884W        W48100  17.799   5.425   2.153  0.0163  0.0143  0.0527
16885W        W48101   8.698  20.256   9.046  0.2875 -0.2226 -0.0140
16886W        W48102  26.508  24.277   2.690  0.0632 -0.0741 -0.4009
16887W        W48103  15.889   0.812   7.845  0.0010  0.1915  0.1899
16888W        W48104  26.354  11.645   9.589 -0.1446 -0.0151  0.1079
16889W        W48105  22.629   0.701   0.519 -0.0356  0.0737 -0.1334
16890W        W48106  24.488   5.963   2.659  0.0931 -0.1185  0.3582
16891W        W48107   5.371  12.764   1.938 -0.1406  0.0216  0.2067
16892W        W48108  16.529  25.793   3.183  0.2476  0.1730  0.0628
16893W        W48109   4.317  11.815   8.255  0.0929  0.2141 -0.1217
16894W        W48110   3.595   8.156   1.202  0.3623  0.4074  0.2966
16895W        W48111   1.519   8.290   8.861  0.0718  0.1891 -0.0406
16896W        W48112   0.510   4.089   9.022  0.0436  0.1048 -0.2222
16897W        W48113   3.809  26.338   1.733 -0.2152  0.3100  0.0590
16898W        W48114  13.028   8.738   9.754 -0.0201  0.0386 -0.0065
16899W        W48115  22.590  13.142   2.744 -0.4604  0.0506 -0.0470
16900W        W48116  21.768  23.274   2.140 -0.0846 -0.3588  0.2714
16901W        W48117  16.044  14.036   7.950  0.1236  0.0758  0.2852
16902W        W48118  12.460  14.187   8.405  0.0774 -0.3136  0.1004
16903W        W48119  20.832  22.049   0.683 -0.0027 -0.3340  0.1083
16904W        W48120   6.259  14.942   7.264 -0.2777 -0.2347 -0.1539
16905W        W48121   0.518   4.216   8.399 -0.1013  0.0590 -0.0998
16906W        W48122   9.795   2.852   1.016  0.0583 -0.0378 -0.1253
16907W        W48123   0.402  12.395   9.147  0.0742  0.4853  0.1777
16908W        W48124   6.802  14.182   8.115  0.0077 -0.2480 -0.3097
16909W        W48125   0.744   4.634   0.013  0.0065 -0.0515  0.0987
16910W        W48126   6.424  18.668   9.760 -0.0678 -0.1902 -0.0408
16911W        W48127   5.286  24.596   1.723 -0.1179  0.0613 -0.4711
16912W        W48128  26.931  23.818   2.181 -0.2208  0.1663 -0.2419
16913W        W48129   2.159   6.657   8.772  0.0277  0.2025  0.1725
16914W        W48130   9.135  24.336   0.319  0.0436 -0.0410  0.2782
16915W        W48131  10.906   7.850   8.376 -0.4602 -0.0017  0.0928
16916W        W48132  22.486  19.739   2.471 -0.0071  0.1062  0.1287
16917W        W48133   4.539  24.338   2.258  0.1897  0.1093 -0.0874
16918W        W48134  23.383  14.008   0.669  0.3146  0.2547  0.0091
16919W        W48135  24.492   4.294   9.332 -0.1762 -0.0901 -0.4089
16920W        W48136  18.347  13.238   8.068 -0.0050 -0.1158 -0.0360
16921W        W48137   3.104   8.214   8.273  0.0551 -0.2208  0.0900
16922W        W48138   4.696  27.222   1.192 -0.0866 -0.3980 -0.0576
16923W        W48139  11.801  26.630   1.572  0.2365  0.1050  0.2356
16924W        W48140  15.811  23.579   2.269  0.2359 -0.0009  0.0997
16925W        W48141  12.019  15.926   1.966  0.0308 -0.4726  0.0530
16926W        W48142  25.193  15.599   1.645  0.1097 -0.0636  0.2328
16927W        W48143  10.336  16.673  10.229  0.0291  0.1880 -0.1658
16928W        W48144  20.545   7.231   1.474 -0.1221 -0.0919 -0.0130
16929W        W48145  13.673  14.064   8.317  0.4031 -0.1069 -0.1013
16930W        W48146  10.612  26.965   0.648 -0.0386  0.0867  0.2177
16931W        W48147   0.543  27.596   2.765 -0.0701  0.0082  0.0441
16932W        W48148   4.690   9.396   7.994  0.0293  0.1913  0.1054
16933W        W48149   8.045  17.949   9.451  0.0870  0.1118 -0.0171
16934W        W48150  14.664  20.615   8.607  0.3107  0.0384 -0.0676
16935W        W48151  26.038  10.805   8.342  0.1150  0.1632  0.0190
16936W        W48152   2.412   3.915   3.158 -0.1214  0.2690 -0.1457
16937W        W48153  16.487  12.577   2.328  0.0585 -0.0212  0.0271
16938W        W48154  22.467  19.483   9.755 -0.0460  0.3179 -0.0900
16939W        W48155  24.042  18.650   1.357 -0.4157 -0.0871 -0.0647
16940W        W48156  20.244   5.718   2.297 -0.5252 -0.1249 -0.1797
16941W        W48157  17.918  19.311   8.226  0.4110 -0.2798  0.2585
16942W        W48158  19.705   8.489   7.809  0.3636 -0.0914  0.4120
16943W        W48159   1.896  16.269   0.278 -0.1867 -0.1432 -0.1559
16944W        W48160   0.664  12.469   1.327  0.0539 -0.1020 -0.4359
16945W        W48161  12.227  14.474   3.260 -0.2319  0.3139 -0.1393
16946W        W48162  13.383  22.391   7.697 -0.0529  0.0113  0.1110
16947W        W48163   5.219   4.020   0.324  0.1182  0.0005 -0.2241
16948W        W48164   4.383  18.633   9.546  0.1576  0.0252 -0.2163
16949W        W48165  25.812   4.598   1.408  0.0513  0.1067  0.0169
16950W        W48166   3.775  14.518   7.685  0.5112 -0.2530  0.1979
16951W        W48167   1.074  19.222   0.311 -0.0392  0.2857 -0.1473
16952W        W48168   2.294  19.258  10.154 -0.0772  0.1006 -0.0981
16953W        W48169  27.029   0.533   2.320 -0.2423 -0.0014  0.0633
16954W        W48170  17.998  10.314  10.163  0.2000  0.1282 -0.1235
16955W        W48171  11.303   2.446  10.370  0.0647 -0.3457 -0.1543
16956W        W48172  20.318  22.822   0.943  0.2801  0.1952 -0.0072
16957W        W48173   5.626   3.721   8.470  0.0718  0.0837  0.3416
16958W        W48174   6.208  11.004   2.410 -0.1073  0.3776  0.0078
16959W        W48175  21.203   8.463   1.820  0.6375 -0.1596  0.2531
16960W        W48176  21.261  14.973   0.049 -0.0389 -0.1202  0.2615
16961W        W48177   0.696   6.181   3.222  0.3135  0.2388 -0.2394
16962W        W48178  24.741  19.128   1.426  0.3071  0.4207 -0.1103
16963W        W48179   6.132   9.840   2.168  0.0268  0.3395  0.1562
16964W        W48180   6.970  12.728   2.577 -0.0120 -0.2312 -0.2279
16965W        W48181   8.486  25.459   8.503 -0.3352  0.1817 -0.1088
16966W        W48182  20.278  15.249   9.271 -0.0437 -0.1976  0.0771
16967W        W48183  20.266  15.503  10.273 -0.0938 -0.0435 -0.1887
16968W        W48184   9.746   2.541   8.684 -0.1228 -0.0486 -0.0541
16969W        W48185   1.181  25.713   0.736  0.1486  0.0405 -0.2023
16970W        W48186  14.760   4.748   9.319  0.2382 -0.2111 -0.2587
16971W        W48187  22.774  10.096   0.045 -0.0536 -0.2850  0.0194
16972W        W48188   2.565  27.166   7.832 -0.1837 -0.1628  0.0304
16973W        W48189  16.743  16.986   2.277  0.2886  0.2744  0.1228
16974W        W48190   0.197   2.925   0.877  0.2748 -0.3049 -0.2351
16975W        W48191  14.873  11.976   1.657 -0.5398 -0.2498 -0.1105
16976W        W48192  25.344   7.480   8.042  0.0754  0.0047  0.2858
16977W        W48193  23.859  24.435   3.862 -0.0874  0.0903  0.0214
16978W        W48194  19.805  19.451   1.801 -0.3219  0.0871  0.1695
16979W        W48195   2.178  25.812   3.978 -0.2713  0.0000 -0.1619
16980W        W48196  17.666   5.029   0.082 -0.3253 -0.0352  0.0933
16981W        W48197   5.172  17.819   0.492  0.2184 -0.1093  0.4611
16982W        W48198  21.682  14.428  10.070 -0.0031 -0.4224  0.3060
16983W        W48199  20.470   0.894  10.296  0.2676 -0.1561  0.0577
16984W        W48200  19.899  13.472   9.571  0.0505  0.2224  0.4452
16985W        W48201   5.699  24.431   9.373  0.1738  0.1732 -0.0046
16986W        W48202  14.804  19.289   3.240 -0.0831 -0.4700  0.1289
16987W        W48203  17.974  20.624   1.558 -0.3284  0.0345  0.1934
16988W        W48204  10.352  24.142   0.291 -0.2191  0.0018 -0.0392
16989W        W48205   6.454  27.359   9.810  0.2489 -0.2459  0.4647
16990W        W48206  19.502  23.581   1.815  0.1019  0.0922  0.2343
16991W        W48207   0.548   6.739   9.811 -0.1115 -0.4958 -0.0276
16992W        W48208  12.450  10.889   9.159 -0.2512 -0.0514 -0.0306
16993W        W48209  24.071   3.036   9.285 -0.0388 -0.1913  0.1153
16994W        W48210  14.158   6.524   1.545 -0.1509  0.2926  0.3048
16995W        W48211   6.376   0.447   1.176 -0.1143  0.1370 -0.0246
16996W        W48212  10.930  14.650   1.875 -0.2767  0.0504 -0.1726
16997W        W48213   5.247   5.199   1.576 -0.1276  0.4307 -0.1047
16998W        W48214  24.244  10.094   8.148 -0.0934  0.2977  0.2691
16999W        W48215  14.265   4.245   8.131 -0.0232 -0.0606 -0.1037
17000W        W48216  26.623  23.236   9.604 -0.0018  0.1314  0.2789
17001W        W48217   3.411   2.261   1.921 -0.4046  0.0184  0.0132
17002W        W48218   2.972   2.070   0.971 -0.1927  0.0670 -0.1772
17003W        W48219   4.848   5.235   7.410 -0.0137 -0.1807  0.1320
17004W        W48220   0.680  19.559   9.311  0.3754  0.0690  0.0298
17005W        W48221  21.319  14.908   1.076 -0.1280 -0.0516  0.0885
17006W        W48222  14.209   8.910   0.521  0.0030  0.2355 -0.3938
17007W        W48223  25.148   8.295   3.237  0.0139 -0.0424  0.0467
17008W        W48224  13.809   5.517   7.690 -0.1407 -0.5499 -0.2533
17009W        W48225  10.177  17.397   0.187 -0.0646  0.3742  0.1829
17010W        W48226   7.119  25.534   9.429 -0.3664  0.0585  0.2974
17011W        W48227   0.331  23.172   1.577 -0.0207  0.1526  0.4556
17012W        W48228   3.505  13.507   0.541  0.2465  0.1926  0.0401
17013W        W48229  26.699  11.162   2.587 -0.1142  0.0328 -0.0565
17014W        W48230  11.094  20.137   9.393  0.0198  0.2554 -0.4182
17015W        W48231   7.508   0.356   1.765 -0.3622  0.1145  0.2139
17016W        W48232  10.088  13.520   0.644 -0.0365  0.1564  0.0133
17017W        W48233  26.831  12.919   0.445  0.0199 -0.1730 -0.2683
17018W        W48234   8.403   2.040   9.544  0.2115 -0.2206 -0.1288
17019W        W48235  15.305  15.699   9.586  0.1782 -0.1852  0.0784
17020W        W48236   7.653  24.891   2.946 -0.2945  0.1744  0.2356
17021W        W48237  12.988  24.369   2.742 -0.1002 -0.2212  0.3937
17022W        W48238  11.479  13.947   2.038  0.0401  0.1411  0.0013
17023W        W48239   0.333  21.327   9.588 -0.1218  0.1276  0.1445
17024W        W48240  27.416  19.927   2.132  0.0046  0.0329  0.1355
17025W        W48241  16.093   0.914   3.978  0.0049  0.0755  0.0581
17026W        W48242  23.650   7.423   9.129 -0.1554  0.1547 -0.0277
17027W        W48243  12.021  15.381   3.751  0.1246 -0.1419 -0.1167
17028W        W48244   8.728   3.068   0.454  0.2681 -0.0859 -0.1470
17029W        W48245  25.050  14.611   9.980  0.4605 -0.1769 -0.0267
17030W        W48246  21.618   3.033   0.346  0.1073  0.0269  0.1395
17031W        W48247  18.681  21.561   2.342 -0.1311  0.1811  0.0715
17032W        W48248  10.793  21.722   1.639  0.2213 -0.1941 -0.0404
17033W        W48249  16.250   4.235  10.244 -0.0969 -0.1667  0.5083
17034W        W48250  18.163  16.943   1.589 -0.2412  0.4151  0.3100
17035W        W48251  25.444   9.791   2.015 -0.2547  0.1038 -0.4435
17036W        W48252  14.024  13.453   1.901  0.1095 -0.1146 -0.1137
17037W        W48253   6.643  18.420   8.620  0.0037  0.1010  0.2123
17038W        W48254   7.906   1.050   0.025  0.2227 -0.0252  0.0209
17039W        W48255  21.183  25.249  10.093 -0.3863 -0.2559  0.0489
17040W        W48256   7.517  18.929   7.755  0.2929  0.4508 -0.1026
17041W        W48257   8.555  17.611   0.845  0.1236 -0.2032 -0.2551
17042W        W48258  22.143   1.951   1.159  0.1255 -0.0672  0.1457
17043W        W48259   8.780  12.761   7.283 -0.2534  0.2548  0.0493
17044W        W48260  14.138  12.855   0.382 -0.0360 -0.0769 -0.1724
17045W        W48261   7.178  21.842   9.793  0.1451  0.2742 -0.0489
17046W        W48262  18.864  18.502   1.712 -0.1136 -0.1692  0.1670
17047W        W48263  15.294  13.815   2.189  0.0708  0.4137  0.2319
17048W        W48264   9.641  23.654   0.768 -0.1869 -0.1076 -0.0361
17049W        W48265   7.002  26.291   1.429  0.0667  0.2117  0.0407
17050W        W48266  26.636  12.517   2.525  0.0993  0.0335 -0.0506
17051W        W48267  24.950  16.920   9.955  0.1503  0.0715 -0.2060
17052W        W48268   7.964  11.627  10.461  0.1123  0.0404 -0.2159
17053W        W48269   3.919   2.134   8.819  0.2047 -0.3280 -0.0215
17054W        W48270  23.310   3.137   1.228  0.2601  0.1794  0.0993
17055W        W48271   3.791  12.383   2.706 -0.2935  0.3238  0.0164
17056W        W48272   9.804   1.309   8.447  0.2716  0.1988 -0.0904
17057W        W48273   9.650  17.421   0.230 -0.0465 -0.1197  0.2055
17058W        W48274  10.630   9.548  10.306 -0.1704 -0.2279  0.1064
17059W        W48275  17.069   1.274   3.138 -0.0307 -0.0232  0.1668
17060W        W48276  11.459  26.059   9.982  0.0397 -0.1594 -0.3591
17061W        W48277  22.537   2.661   2.900 -0.3454  0.1267  0.2064
17062W        W48278  23.391  16.960   0.646 -0.0314 -0.2322  0.3868
17063W        W48279  21.005  13.851   7.263  0.0221 -0.0120  0.1595
17064W        W48280  16.119   6.236   8.903  0.3172  0.2316  0.2738
17065W        W48281  15.292  15.255   1.236  0.0391  0.1866  0.1476
17066W        W48282   1.281  27.025   0.273 -0.1012  0.0829  0.0220
17067W        W48283  12.812  16.085   1.360 -0.0848 -0.0972  0.0203
17068W        W48284  26.269   5.245   8.857 -0.1889 -0.2713 -0.0336
17069W        W48285   2.795  13.159   2.295  0.2211  0.2297 -0.3859
17070W        W48286  18.823  12.155   9.057  0.1455  0.2217  0.0017
17071W        W48287  11.810   5.951   1.555  0.1725 -0.1439 -0.1148
17072W        W48288  23.309   8.155   0.826 -0.2071  0.2325 -0.0963
17073W        W48289  11.059  18.177   1.833  0.0925 -0.2815  0.2501
17074W        W48290   8.893  16.060   9.438 -0.3233  0.4163  0.0633
17075W        W48291   5.935  15.625   1.622  0.3100 -0.0415 -0.1368
17076W        W48292  21.763  12.819   0.041 -0.1525  0.2706  0.1717
17077W        W48293  11.158  12.323   0.498  0.0453  0.1372  0.0164
17078W        W48294   6.614   2.496   0.605 -0.0594 -0.2831  0.1141
17079W        W48295   2.020  20.004   3.566  0.0392  0.1172 -0.1210
17080W        W48296  20.478  27.358   8.669  0.1092  0.0554  0.0778
17081W        W48297   3.819  22.392   7.318  0.1855 -0.0400  0.1073
17082W        W48298   4.254   2.488   0.947 -0.0371  0.1665 -0.2654
17083W        W48299  13.845  26.446  10.363  0.0064 -0.0680 -0.1033
17084W        W48300  21.557  12.909   1.901  0.0142  0.5455  0.1650
17085W        W48301   7.332  17.919   0.007  0.0754  0.0089  0.4451
17086W        W48302  21.579  13.579   1.995  0.2056 -0.1203  0.0890
17087W        W48303  18.259  19.903   8.654  0.0315  0.1383 -0.1625
17088W        W48304   0.410   5.676   1.926  0.2636 -0.2019  0.0733
17089W        W48305  22.931   3.142   9.954 -0.0278 -0.2635 -0.0386
17090W        W48306   2.614   7.905   1.480  0.0013 -0.0530  0.0029
17091W        W48307  20.147   5.156   0.468 -0.0214 -0.0917  0.0615
17092W        W48308   1.108   9.648  10.509 -0.0961 -0.1891  0.0186
17093W        W48309   5.305  14.420   9.315  0.2066  0.1962 -0.0408
17094W        W48310   9.756  20.869   9.054 -0.2162  0.1930 -0.0342
17095W        W48311  22.388   0.413   8.693  0.2151 -0.4237  0.1590
17096W        W48312  14.648  24.234  10.442  0.1129 -0.0952  0.1319
17097W        W48313   7.138  20.942   9.846  0.2285 -0.1617 -0.2613
17098W        W48314  10.887  11.217  10.456 -0.0703  0.1293 -0.3073
17099W        W48315  16.373  18.742   9.427 -0.0320  0.3149  0.0033
17100W        W48316  26.653  21.029   9.931 -0.0128  0.2160 -0.0100
17101W        W48317   0.829   6.008   2.537  0.1711  0.3630  0.0391
17102W        W48318   3.756   2.140   8.269  0.4551  0.1524 -0.1872
17103W        W48319  22.787  15.916   3.048 -0.0745  0.0599 -0.1151
17104W        W48320  16.479  15.164   7.216 -0.0791 -0.0158  0.1180
17105W        W48321   9.897   5.256   1.375 -0.3528 -0.1312  0.0125
17106W        W48322  12.052  24.595   0.243 -0.0246  0.2218  0.5505
17107W        W48323  19.849   7.890   9.538 -0.1363 -0.0573 -0.2032
17108W        W48324   3.479   8.301   1.710 -0.2998 -0.0654  0.1522
17109W        W48325  10.008  26.733   2.928 -0.1583 -0.0299 -0.0596
17110W        W48326   9.257   2.087   2.342 -0.1828  0.0102 -0.1577
17111W        W48327  14.513  21.468   9.137  0.1572 -0.0339  0.2541
17112W        W48328  25.514  12.916   8.000  0.0058 -0.1417 -0.1439
17113W        W48329  16.306   5.309   8.761 -0.1149 -0.1164  0.0538
17114W        W48330   3.541  11.121   8.218 -0.1713 -0.0908 -0.0362
17115W        W48331  25.329   2.186   0.728  0.3137  0.0779  0.0491
17116W        W48332  24.573  22.698   9.721 -0.0050 -0.2922 -0.5078
17117W        W48333   0.311  22.899   8.115  0.0803  0.1093 -0.2831
17118W        W48334  19.356  25.512  10.407 -0.0532 -0.0142 -0.2736
17119W        W48335  16.402  15.977   2.118  0.1284  0.0602  0.3523
17120W        W48336   1.625   3.426   2.185 -0.1756  0.3838  0.3029
17121W        W48337   2.962  25.255   0.014 -0.1715  0.2226 -0.1089
17122W        W48338  27.096  15.066   1.930 -0.0388 -0.0081  0.0620
17123W        W48339  21.143  14.633   3.449  0.1678  0.1068  0.1021
17124W        W48340  21.625   2.299   3.801  0.0675 -0.3680 -0.1801
17125W        W48341   7.930  19.186   0.101 -0.1860  0.1020  0.0252
17126W        W48342  25.900   6.202   9.324  0.3107  0.2239  0.0646
17127W        W48343  24.801   1.430   2.866  0.0405 -0.1243  0.1349
17128W        W48344   1.029   3.143   1.939 -0.1275  0.3650 -0.2260
17129W        W48345   0.373  18.995   0.504 -0.1973 -0.0828 -0.4016
17130W        W48346  26.284  22.354   2.168 -0.0074  0.1275  0.2015
17131W        W48347   5.757  10.011   8.553 -0.2490 -0.0229 -0.0449
17132W        W48348   7.338  23.924   9.098 -0.0863  0.3071 -0.0034
17133W        W48349   3.178  11.622   8.621 -0.2055  0.0539  0.1922
17134W        W48350  16.969  24.157   2.572 -0.1427 -0.1964  0.1384
17135W        W48351  22.314  20.117   8.633 -0.0368  0.3279 -0.2004
17136W        W48352  13.891  13.148   8.337 -0.1546 -0.2301 -0.0701
17137W        W48353  14.537   5.315   4.117 -0.0473  0.0543  0.1434
17138W        W48354  23.543   4.608   8.882 -0.2699  0.4236 -0.0046
17139W        W48355   6.322  22.791   2.438  0.2682 -0.0267 -0.0364
17140W        W48356  19.598  20.584   4.355  0.1781 -0.2234  0.1947
17141W        W48357  18.452   4.536   3.482  0.0027 -0.0087 -0.0218
17142W        W48358  11.050   6.541   9.963 -0.0800  0.0779 -0.1574
17143W        W48359  26.232   2.098   0.211 -0.1571  0.0661 -0.0602
17144W        W48360   3.794   5.350   0.548 -0.0791  0.0811  0.0269
17145W        W48361   1.198  10.065   0.217  0.0003 -0.3718 -0.0348
17146W        W48362   4.243   7.300   8.814 -0.0627  0.1439  0.0616
17147W        W48363   8.239   5.551   8.403  0.1300  0.1683  0.0769
17148W        W48364   4.641   8.124   7.483  0.1059  0.1552  0.0967
17149W        W48365  12.333   0.218   9.355  0.0594  0.0912  0.1736
17150W        W48366  12.089   2.019   1.951  0.2587 -0.0594  0.0975
17151W        W48367   7.568   4.985   8.018  0.1878 -0.0468  0.1953
17152W        W48368  13.757   6.231   1.737 -0.0180 -0.2382 -0.3530
17153W        W48369  17.913   7.079   1.373  0.3091 -0.0057  0.0751
17154W        W48370  18.438  26.217   2.003  0.1147  0.0544 -0.1097
17155W        W48371  24.537  14.590   9.884 -0.1199 -0.0105 -0.0908
17156W        W48372  14.235   6.402   9.389 -0.1006  0.2346  0.0972
17157W        W48373   7.276  23.784   0.123  0.2460 -0.1852  0.3162
17158W        W48374   0.860   7.643   0.797 -0.0954 -0.1240  0.0137
17159W        W48375  24.668  17.096   0.449 -0.2769 -0.1806 -0.1913
17160W        W48376  20.157  22.816   2.067  0.0911 -0.0251  0.0290
17161W        W48377  23.683  25.190   8.279 -0.2939  0.0572  0.2789
17162W        W48378  11.720   8.450   7.875  0.1347 -0.3653  0.1684
17163W        W48379   8.792  19.664   0.608  0.1356  0.1147 -0.0646
17164W        W48380  14.846   3.546   0.466  0.0449 -0.1515  0.3957
17165W        W48381  16.953  16.966   9.452  0.0245  0.1340 -0.1635
17166W        W48382  26.252  12.509   7.717 -0.0374  0.2065 -0.0601
17167W        W48383  12.795  11.805   2.070 -0.0214  0.1897  0.3361
17168W        W48384  22.693  14.523   1.713  0.1115 -0.1193  0.2214
17169W        W48385  20.799  14.824   1.825  0.0275 -0.2140 -0.1978
17170W        W48386   5.391  12.145   2.327 -0.3256  0.0472  0.4002
17171W        W48387  18.079   2.521   2.233 -0.0558  0.1591  0.1749
17172W        W48388   6.464   7.789   7.500 -0.1174  0.1598  0.1193
17173W        W48389  20.999   4.555   9.497 -0.1727 -0.1377 -0.0647
17174W        W48390  21.811   8.125   9.316 -0.0959 -0.0568  0.0231
17175W        W48391  26.416  13.078   2.021  0.1250 -0.1490  0.1570
17176W        W48392   8.988  13.208   8.853  0.0885 -0.0203  0.3490
17177W        W48393   7.235  20.145   8.274  0.0254  0.1864 -0.2016
17178W        W48394  12.261   8.897   0.221 -0.4618  0.3333  0.2818
17179W        W48395   8.120  23.686   0.580  0.4169 -0.3306 -0.2087
17180W        W48396  22.334   3.883   8.466 -0.0553  0.2051  0.1555
17181W        W48397  26.852  14.135   1.323  0.4671  0.2838  0.6313
17182W        W48398  11.709  21.369   8.267  0.1334  0.1609  0.0621
17183W        W48399  14.366   0.231   3.428  0.0358 -0.0243  0.1612
17184W        W48400  22.213  15.505   8.092  0.1223  0.0849 -0.0233
17185W        W48401   5.675  10.472   0.204  0.0901 -0.1111  0.0295
17186W        W48402  16.344  25.359   8.659 -0.0073  0.1647  0.1096
17187W        W48403   7.850  18.394   9.516  0.2991  0.0092 -0.0308
17188W        W48404  12.108   1.561   1.781 -0.3268 -0.0039  0.2305
17189W        W48405   5.954   0.986   2.596 -0.3481 -0.0831 -0.2371
17190W        W48406  14.400   8.319   1.477 -0.3431  0.0701  0.3778
17191W        W48407   5.764   6.082   9.616  0.1792  0.1502  0.3231
17192W        W48408  15.479   8.877   2.397  0.0310 -0.2522 -0.0247
17193W        W48409  26.391  15.403   0.481 -0.1703 -0.1004  0.1599
17194W        W48410   4.703  18.355   9.282 -0.3323  0.0996 -0.0591
17195W        W48411  21.580  26.822   0.138  0.0200 -0.1499  0.0660
17196W        W48412   2.204  18.793   7.418 -0.1199  0.1284  0.1967
17197W        W48413   0.349  11.485   0.562 -0.0735 -0.0034  0.1417
17198W        W48414   5.226  22.203   9.409 -0.3061 -0.1744  0.1721
17199W        W48415   2.381  12.925   2.672  0.2985  0.0292  0.0212
17200W        W48416  10.542  13.844   2.642  0.2553 -0.2033  0.1262
17201W        W48417   8.866  22.095   2.163  0.1586 -0.0779  0.1242
17202W        W48418  17.635   3.450   0.229  0.0173 -0.1780 -0.0909
17203W        W48419   3.480   0.233   0.553 -0.1854  0.1804 -0.0578
17204W        W48420  26.214   3.495   2.931 -0.3127 -0.0052 -0.0312
17205W        W48421  16.620  19.595  10.164  0.2248 -0.1985  0.0978
17206W        W48422   8.463   3.149   2.923 -0.1937  0.0889  0.1269
17207W        W48423  25.037  21.741   7.837 -0.2340 -0.1570 -0.1179
17208W        W48424   9.682  22.434   2.605 -0.0450  0.0416 -0.1734
17209W        W48425   4.421  21.095  10.230 -0.1820  0.4412  0.1909
17210W        W48426   3.295   9.617   3.555  0.1154  0.1728 -0.2216
17211W        W48427   7.260  24.036   1.062  0.1912 -0.0420  0.0820
17212W        W48428  19.487  27.197   0.139 -0.2123 -0.0617  0.5604
17213W        W48429  20.909  26.606  10.139 -0.2461  0.2122  0.0735
17214W        W48430  14.728  23.546   0.401  0.2468  0.2396  0.0101
17215W        W48431  11.356   5.714   8.959  0.2387 -0.3370  0.1452
17216W        W48432   4.320  10.055   1.605 -0.1507  0.2430 -0.0127
17217W        W48433   2.640  20.050   8.976 -0.2370 -0.2815 -0.2012
17218W        W48434  24.031  17.130   9.626  0.2477  0.0910 -0.2648
17219W        W48435  27.307  17.976   1.493  0.1211 -0.1965 -0.1524
17220W        W48436  16.942  11.874   0.461  0.2352 -0.2566  0.0012
17221W        W48437  11.285   3.455  10.056 -0.1246 -0.0281 -0.0738
17222W        W48438  24.220   0.958  10.445 -0.0129 -0.0461  0.0812
17223W        W48439  27.122  22.125   2.346  0.0079  0.1012  0.3153
17224W        W48440  24.102   6.455   8.067  0.0284 -0.0330  0.0376
17225W        W48441   1.837   3.022   9.221  0.0430 -0.4400 -0.2401
17226W        W48442  21.022  18.746  10.503 -0.1158  0.0093 -0.1749
17227W        W48443   6.019  25.466   3.079  0.0703  0.3932  0.0145
17228W        W48444  15.242  25.119   9.106  0.0064 -0.0227 -0.2415
17229W        W48445   9.952  15.416   0.273  0.1373 -0.0535  0.1257
17230W        W48446   2.040   2.059   7.561  0.0002  0.3200 -0.2377
17231W        W48447  14.876   0.389   9.989 -0.0040 -0.1302  0.0222
17232W        W48448  11.308   6.174   2.861 -0.1597  0.0044 -0.3721
17233W        W48449  18.405  20.007   9.777  0.0813 -0.3722 -0.1857
17234W        W48450   5.341   7.721   2.098 -0.0919 -0.0939 -0.1724
17235W        W48451  16.408  20.120   0.720 -0.1587  0.1009  0.3919
17236W        W48452   4.271  12.366   9.704  0.1464  0.1094  0.5774
17237W        W48453  23.583  24.435   7.916 -0.3047 -0.1389  0.3338
17238W        W48454  20.723  21.403   3.807 -0.0181 -0.0447  0.2288
17239W        W48455  12.771  13.853   2.231  0.3185 -0.0580  0.1553
17240W        W48456  15.838  26.260   1.372 -0.2506 -0.1909  0.1201
17241W        W48457  26.773  23.690   9.208  0.1548  0.1734 -0.2170
17242W        W48458  15.382  15.595   2.836 -0.0494  0.0374 -0.1828
17243W        W48459  12.619   7.730   9.113  0.2341 -0.0683  0.0835
17244W        W48460  16.796  23.071   9.476  0.0215  0.0980 -0.0297
17245W        W48461   2.559  11.326   0.247 -0.1060 -0.0747  0.1329
17246W        W48462  13.531  25.000   3.841 -0.1229  0.2862  0.3299
17247W        W48463   7.871   6.964   0.216 -0.2425 -0.0764  0.0513
17248W        W48464  27.370  18.626   7.863  0.1731  0.1536  0.0904
17249W        W48465  16.767  15.047   8.314  0.2549  0.0582 -0.1552
17250W        W48466   4.075  17.432   3.665 -0.1510  0.0914  0.0117
17251W        W48467  16.403   6.648   8.696  0.2724 -0.0393 -0.1101
17252W        W48468  12.665   1.847   7.720 -0.1402  0.0199 -0.2760
17253W        W48469  19.459   5.018   0.791  0.3187  0.1240 -0.1225
17254W        W48470   8.130  16.007   0.934  0.0657 -0.1929  0.4218
17255W        W48471   9.290  10.376   9.051 -0.0518  0.0120 -0.0343
17256W        W48472  13.267   1.751   8.569 -0.1656  0.2930  0.1016
17257W        W48473  12.948   8.027   1.936 -0.0777 -0.0792 -0.0528
17258W        W48474  16.888   1.178   0.444  0.1367  0.0454 -0.0618
17259W        W48475   8.065   9.487   8.936 -0.2069  0.0675 -0.3902
17260W        W48476  26.319  22.485   8.067 -0.0454 -0.0855  0.0966
17261W        W48477  24.908  13.474   2.713 -0.2055 -0.2161 -0.1424
17262W        W48478  24.032  17.135   3.098 -0.2465 -0.1189 -0.0509
17263W        W48479   5.609  20.888   1.303  0.0544 -0.2926 -0.0380
17264W        W48480   9.139  16.654   2.251 -0.1677 -0.2891  0.1612
17265W        W48481  14.222  22.609   9.693 -0.0899  0.2145 -0.0898
17266W        W48482  12.678  25.801   8.799  0.0447 -0.1473 -0.2353
17267W        W48483  24.417  27.425   2.767 -0.1529 -0.2918  0.0249
17268W        W48484  18.034  17.664   8.449 -0.2557  0.0885  0.3104
17269W        W48485  21.577   9.511   9.428  0.1455  0.4139  0.3519
17270W        W48486  22.276  23.257   2.381  0.0151 -0.0427  0.1996
17271W        W48487  11.760   0.904   7.450  0.0935 -0.1645  0.0472
17272W        W48488  14.149   5.945   8.471  0.0451 -0.0575 -0.3306
17273W        W48489   7.055  21.673   0.120 -0.0303 -0.0039 -0.1611
17274W        W48490   7.044   0.110   1.742 -0.0339 -0.0085 -0.2173
17275W        W48491  12.049  27.204   9.518  0.2904 -0.2633 -0.2963
17276W        W48492   9.357   0.605   2.738  0.1753  0.1104 -0.4013
17277W        W48493  25.397   9.276   7.395 -0.3229  0.1501 -0.2749
17278W        W48494  13.832  13.169   9.621 -0.1037 -0.2708  0.0698
17279W        W48495   0.407  22.469   9.917  0.6007  0.1220 -0.0727
17280W        W48496   0.230   6.589   9.431  0.2373 -0.1001 -0.3158
17281W        W48497  24.668  26.263   8.315  0.2223 -0.3788 -0.0103
17282W        W48498  24.139   3.669  10.534  0.1169 -0.5369  0.2115
17283W        W48499   4.801  25.099   3.071 -0.0719  0.0419 -0.0478
17284W        W48500   0.752   1.449   0.237 -0.2489  0.0430 -0.1125
17285W        W48501   0.306   7.051   8.377  0.1235  0.1758 -0.1066
17286W        W48502   9.674   1.814   2.174 -0.0679 -0.2129  0.0209
17287W        W48503   4.610  21.865   0.309 -0.1016 -0.1485  0.2658
17288W        W48504  23.988   6.807   3.580 -0.3416 -0.0469  0.2156
17289W        W48505   3.226  26.444  10.444  0.1279 -0.0305  0.1082
17290W        W48506  17.134   2.031   1.540 -0.1318  0.2917  0.3063
17291W        W48507   8.514   5.884   1.243 -0.1511 -0.1317  0.1107
17292W        W48508   3.715   8.972   3.552 -0.1230 -0.1562  0.2858
17293W        W48509   1.974  10.039   1.187  0.0222  0.3777  0.1529
17294W        W48510   1.655   1.081   7.572 -0.1429 -0.1657 -0.3497
17295W        W48511   1.079   4.997   0.130  0.2049  0.1365  0.1449
17296W        W48512  17.757  16.949   9.141 -0.0472 -0.0009 -0.3254
17297W        W48513   9.155  13.953   8.441 -0.3134 -0.0403  0.2071
17298W        W48514  12.835   6.206   2.924 -0.0505 -0.1247 -0.1814
17299W        W48515  21.800  24.484   9.001  0.1792  0.0843  0.3463
17300W        W48516  25.019  15.984   0.639 -0.0415  0.2300 -0.0008
17301W        W48517  23.060   9.181  10.366  0.4636  0.0034 -0.1088
17302W        W48518  11.348  20.019   8.481  0.1374  0.1472  0.0108
17303W        W48519  11.710   5.873   2.966  0.0202  0.0218 -0.3970
17304W        W48520  14.715  21.864   9.338  0.1388 -0.1714  0.0086
17305W        W48521  10.540  24.424   7.909 -0.1066 -0.0013  0.0081
17306W        W48522  26.340  20.187  10.105  0.0804 -0.0935  0.0330
17307W        W48523  20.479   5.339   8.722  0.0668 -0.3244  0.0317
17308W        W48524  17.224  16.077   0.538 -0.0112  0.0174  0.0167
17309W        W48525  11.227  17.462   0.179 -0.3726 -0.0236 -0.4339
17310W        W48526  14.322  24.239   0.391  0.2931  0.0654 -0.1516
17311W        W48527   0.372  13.040   1.525  0.1113 -0.2190  0.1022
17312W        W48528  19.568  10.623   8.196 -0.0479  0.2392 -0.2485
17313W        W48529  13.413  22.175   1.465 -0.6047 -0.3050 -0.0067
17314W        W48530   2.209  16.296   1.171 -0.1065 -0.2158 -0.3484
17315W        W48531  23.635  19.795   0.418  0.1670  0.1696 -0.0592
17316W        W48532   2.186  13.175   2.219 -0.0586 -0.1724 -0.1696
17317W        W48533  16.096   6.710   1.464  0.1415  0.1228 -0.3758
17318W        W48534  24.770  12.475   9.473 -0.0545  0.2156  0.0790
17319W        W48535  27.518  19.873   3.362  0.2034 -0.0201 -0.0330
17320W        W48536   6.077  10.379   8.726  0.1186  0.0850 -0.2920
17321W        W48537  26.309  23.747   2.757  0.0519 -0.2728 -0.0238
17322W        W48538  16.947  15.890   7.753 -0.0033  0.4742  0.3870
17323W        W48539  21.995  13.623   3.265  0.0112  0.0165  0.1082
17324W        W48540   4.914  18.165  10.279 -0.0355 -0.0737  0.2058
17325W        W48541  16.340   7.590   9.059  0.0205  0.0545  0.0324
17326W        W48542  24.182   0.869   1.111 -0.1061 -0.0695  0.2409
17327W        W48543  22.944  19.607   2.273 -0.2817 -0.0349 -0.0776
17328W        W48544  14.330   8.718   0.001 -0.2265  0.2358 -0.1360
17329W        W48545  18.586   1.447  10.535  0.0384 -0.2236  0.2636
17330W        W48546  24.698   2.887   8.760 -0.1031 -0.1075 -0.2837
17331W        W48547   2.561   9.102   3.329  0.0447  0.2554 -0.0277
17332W        W48548   2.193  27.436   1.587 -0.3166  0.0172  0.1345
17333W        W48549  24.129  14.331   1.357  0.0554 -0.2376  0.0251
17334W        W48550  13.567   1.132   9.385 -0.3058 -0.0661  0.2339
17335W        W48551  12.603  16.025   0.711 -0.1181  0.0163  0.0977
17336W        W48552   8.560  21.436   0.140 -0.2825 -0.0867  0.3097
17337W        W48553  10.979  23.526   8.517  0.0323 -0.2302 -0.0889
17338W        W48554  15.201   8.659   8.429 -0.1607 -0.1469 -0.1944
17339W        W48555   7.870  15.598   2.628 -0.2462  0.0637 -0.0546
17340W        W48556   6.503  22.419   8.723  0.0152  0.4535  0.2975
17341W        W48557  19.282  11.077   0.839  0.1015 -0.3170  0.0262
17342W        W48558  24.560   0.549   2.804  0.1371  0.2255 -0.0666
17343W        W48559  23.641  25.711   7.919  0.1949 -0.1119  0.0326
17344W        W48560  17.722  26.715   9.416 -0.2239  0.2015  0.1649
17345W        W48561  26.658   4.795   1.191  0.0461  0.0599 -0.5681
17346W        W48562   3.548  15.494   0.473 -0.1460 -0.0639 -0.2384
17347W        W48563  14.840  14.891   1.140  0.0456 -0.1361  0.2526
17348W        W48564  11.445  10.620   1.734 -0.0101 -0.3104  0.4722
17349W        W48565  22.757   0.004   1.190 -0.1326 -0.0270 -0.1322
17350W        W48566   9.425  15.296   0.605 -0.2761  0.1159 -0.1114
17351W        W48567  27.259  23.480   0.320 -0.1776 -0.2146  0.1945
17352W        W48568   3.842   5.343   1.536 -0.0691  0.0382 -0.0185
17353W        W48569  17.484  16.441   1.473  0.0494  0.3486  0.0220
17354W        W48570  11.392   1.329   9.924  0.0169 -0.4406  0.1116
17355W        W48571   1.418  19.085   2.534  0.0870  0.0793 -0.0754
17356W        W48572  18.573  10.238  10.246  0.0223  0.2322 -0.1024
17357W        W48573  12.585  21.063   1.586  0.0422  0.1654  0.1178
17358W        W48574  21.922   6.263   1.965  0.0847  0.2626  0.4729
17359W        W48575  20.892  15.028   2.301  0.0818 -0.0691 -0.2520
17360W        W48576  22.487  17.754   7.345  0.2146  0.2446 -0.0306
17361W        W48577  20.211  19.439   0.927  0.0010  0.0201  0.2136
17362W        W48578  14.067   4.676   9.398 -0.1865  0.0928 -0.2079
17363W        W48579  17.165  18.568   2.537  0.1363 -0.6129 -0.2755
17364W        W48580  23.120  17.275   0.942 -0.3671 -0.0107 -0.1679
17365W        W48581  23.112   9.315   3.275 -0.1323  0.2999 -0.0085
17366W        W48582  22.027  11.460   9.447 -0.0019 -0.1597  0.0255
17367W        W48583  20.552  15.092  10.290  0.1709 -0.2890  0.0658
17368W        W48584   2.557   7.577   8.202 -0.0574 -0.1762  0.1302
17369W        W48585   7.975   1.808  10.078  0.0336 -0.0120 -0.3504
17370W        W48586  23.406  22.936   0.927 -0.1201  0.2763  0.0231
17371W        W48587  21.673   8.937   2.254  0.2351 -0.1517 -0.0963
17372W        W48588   7.987  17.633   2.750 -0.2969  0.1681 -0.2776
17373W        W48589  20.563   1.780   3.114 -0.1585  0.0988 -0.2112
17374W        W48590  14.430  14.263   0.712  0.1000  0.2344  0.0753
17375W        W48591  19.722  25.994  10.291 -0.0859  0.1021  0.1342
17376W        W48592  26.203   9.129   8.507  0.1792 -0.1945  0.0823
17377W        W48593  25.347  19.791  10.061  0.1294 -0.0397 -0.1582
17378W        W48594   6.042   8.443   9.911 -0.1675  0.0558  0.2343
17379W        W48595  16.479  15.772   3.823  0.2149  0.0611 -0.0188
17380W        W48596   2.464  10.452   7.932 -0.0522 -0.2752  0.1376
17381W        W48597   1.381  12.634   8.571 -0.3605  0.1581  0.1603
17382W        W48598  17.977  18.275   9.203  0.1270  0.2468 -0.2732
17383W        W48599  11.192  13.031   3.547 -0.1452 -0.0486 -0.1438
17384W        W48600   7.152  14.507   9.378 -0.1398  0.4405  0.2255
17385W        W48601   3.396  13.331   1.040  0.2358  0.0878  0.2592
17386W        W48602   6.570   5.767   8.723  0.2303 -0.1661  0.0987
17387W        W48603   7.726   5.476   8.087 -0.0774 -0.0899  0.3075
17388W        W48604   4.508   7.363   2.258  0.2423  0.2352  0.2136
17389W        W48605  14.486   0.168   8.719  0.0910  0.1547  0.3271
17390W        W48606  14.925   1.868   0.027  0.0047  0.0757  0.1425
17391W        W48607   5.790  23.869   2.036  0.0764 -0.1153  0.2828
17392W        W48608   3.404  12.242   2.349  0.2767 -0.0583 -0.0787
17393W        W48609  24.143  25.286  10.197 -0.1328  0.0820  0.2415
17394W        W48610   5.881   8.663   9.393 -0.3066  0.0113 -0.1247
17395W        W48611   1.823  16.028   9.946  0.2068 -0.0495 -0.3209
17396W        W48612  18.292  11.591   1.991  0.1028  0.1600  0.3816
17397W        W48613  16.636   9.083   1.443 -0.0123 -0.1088 -0.0998
17398W        W48614  15.396  13.684   1.643  0.0077 -0.0230  0.0479
17399W        W48615  15.854   0.791   1.766 -0.0301  0.1812 -0.3085
17400W        W48616  18.710  10.785   8.036  0.6629 -0.0910 -0.0288
17401W        W48617  15.819  20.035   3.663  0.1411  0.3028  0.1796
17402W        W48618   2.175  22.142   3.305  0.3390  0.3885 -0.0263
17403W        W48619   5.730  19.070   0.656  0.1458 -0.3438  0.5079
17404W        W48620   9.528  24.504   0.609 -0.1393  0.0678 -0.2402
17405W        W48621  14.259  24.298   3.759 -0.0692 -0.0384  0.0784
17406W        W48622  23.214   7.225  10.052 -0.4491 -0.1879 -0.2368
17407W        W48623  19.319  20.870   0.117  0.0993  0.1833  0.2513
17408W        W48624  21.112   5.843   9.811 -0.2170 -0.0126 -0.3594
17409W        W48625  13.905  14.441   3.217  0.1631 -0.0143  0.1868
17410W        W48626  14.862  23.874   3.182 -0.1140 -0.1842  0.1573
17411W        W48627  11.337  25.180   1.567 -0.1958  0.0687  0.1617
17412W        W48628   7.235   9.098   7.448  0.1703  0.1162  0.2000
17413W        W48629  24.853  20.391   9.959  0.2306  0.0064 -0.5735
17414W        W48630   4.385  22.086   9.189 -0.0094  0.2338  0.3915
17415W        W48631  18.684   5.413   9.024  0.1189 -0.1706 -0.3075
17416W        W48632   7.703   1.281   7.653  0.0161  0.1066  0.0376
17417W        W48633   1.452  10.698   8.530  0.2163 -0.0499  0.0542
17418W        W48634   7.442   3.425   3.248  0.0528  0.0698 -0.0225
17419W        W48635   2.836  18.932  10.435  0.1413 -0.1002  0.0328
17420W        W48636   6.658  26.187   9.324  0.1474 -0.1017 -0.0855
17421W        W48637   5.751   2.229   1.455  0.2498 -0.0496 -0.1381
17422W        W48638  15.085   7.698   8.466  0.1052 -0.1616  0.0052
17423W        W48639  27.502   6.741   1.904  0.0020 -0.3138  0.1679
17424W        W48640   8.722   7.305   2.452 -0.0166  0.0171 -0.1924
17425W        W48641  13.567  11.213   3.212 -0.0980  0.0660  0.0742
17426W        W48642  26.942   1.734  10.231 -0.2782  0.2427  0.0495
17427W        W48643  12.168  21.675   2.708 -0.1656 -0.0991 -0.4303
17428W        W48644   9.577  13.881   8.907 -0.1797 -0.0274 -0.3697
17429W        W48645  22.791   1.347   1.801  0.0003  0.1466 -0.0294
17430W        W48646  26.756  23.474   1.146  0.0435 -0.0435 -0.3630
17431W        W48647  20.580   9.498   8.553  0.3350  0.0610  0.0442
17432W        W48648  13.263   0.707   2.965  0.1599  0.1625  0.1519
17433W        W48649  22.200   3.996   0.263 -0.2646 -0.0837  0.0572
17434W        W48650  20.868  17.441   2.443  0.1042 -0.0128 -0.1052
17435W        W48651   9.648  26.269   2.646  0.1257  0.1698 -0.1285
17436W        W48652   6.748  19.214  10.165  0.0110  0.1059 -0.2054
17437W        W48653  16.163  17.451   3.322 -0.0896  0.0627 -0.1804
17438W        W48654   4.397   3.546   7.486  0.1164 -0.0783 -0.0469
17439W        W48655  16.904   3.314   9.570  0.1018  0.3659  0.1685
17440W        W48656   0.333  25.602   0.151 -0.2227 -0.0834  0.0770
17441W        W48657   7.747  16.969   9.243 -0.2797 -0.1367  0.1139
17442W        W48658  20.719   2.695   9.639 -0.2570  0.0460  0.3182
17443W        W48659  11.568  19.719   0.181  0.1992  0.1343 -0.1380
17444W        W48660  10.335  27.412   7.201 -0.0132 -0.2939  0.0169
17445W        W48661  15.222   6.943   8.906 -0.1097  0.0293 -0.1036
17446W        W48662   7.214   9.291   9.216 -0.0260 -0.0155  0.2410
17447W        W48663   2.102  13.397   1.014  0.0288  0.1220 -0.3323
17448W        W48664   7.062  21.978   0.984  0.3929  0.0399  0.0883
17449W        W48665  24.725  16.047   8.730  0.1361 -0.0101 -0.5203
17450W        W48666   9.699   1.854   7.021 -0.4296 -0.1691 -0.2754
17451W        W48667  11.332   9.897   8.721  0.2081  0.1290 -0.0332
17452W        W48668   5.693   9.565   3.339 -0.0551  0.2386  0.1713
17453W        W48669  10.838  10.580   8.759  0.0244  0.0729  0.1822
17454W        W48670  23.756   8.325   0.721  0.1670 -0.3915  0.1108
17455W        W48671   3.356   4.130   2.674 -0.1268 -0.0931 -0.0657
17456W        W48672  21.666  10.085   7.934 -0.1675  0.0826  0.1197
17457W        W48673   4.409  23.792   0.166  0.0174 -0.0988 -0.2154
17458W        W48674   9.707  22.809  10.139  0.2153  0.1340  0.0713
17459W        W48675  11.894   5.392   0.684  0.2939 -0.1992 -0.1972
17460W        W48676   1.128  13.796   3.745 -0.0297  0.2117 -0.1292
17461W        W48677  21.747  20.043   0.072 -0.1936 -0.2642 -0.0033
17462W        W48678   3.558  19.475   1.380  0.1189 -0.3788 -0.2003
17463W        W48679  21.210   4.417   2.192 -0.1564 -0.0314  0.1244
17464W        W48680   2.394  25.443   9.986  0.0137  0.2020  0.1087
17465W        W48681  13.390   2.666   8.567  0.1012  0.2634  0.3052
17466W        W48682  24.873  12.118   1.392 -0.2553  0.0888 -0.0223
17467W        W48683  25.750  22.082   3.724 -0.1432  0.1447 -0.0958
17468W        W48684  27.010  26.732   8.031  0.3480  0.1545  0.0188
17469W        W48685  13.962  16.723   0.351 -0.1927 -0.2884 -0.2959
17470W        W48686  10.675  21.688   8.563 -0.2852  0.1092 -0.0325
17471W        W48687  25.050   9.047   8.611  0.0939 -0.0033 -0.1567
17472W        W48688  19.982  11.420   1.134 -0.2521 -0.1129  0.5084
17473W        W48689   7.055  22.509   3.800 -0.1446 -0.0447  0.3566
17474W        W48690  23.510  19.849   2.371 -0.1501 -0.0215 -0.0284
17475W        W48691  18.102  19.682   9.468  0.0551  0.0461 -0.1888
17476W        W48692  23.807  22.463   2.210  0.2299 -0.1599 -0.1970
17477W        W48693  21.093  13.509   8.166  0.0903 -0.0349 -0.1682
17478W        W48694  27.243  22.837   3.179 -0.0063 -0.1660 -0.0077
17479W        W48695  11.586  26.644   7.881 -0.1110  0.0263  0.1159
17480W        W48696  18.178  20.567   2.495 -0.2728  0.0542  0.3952
17481W        W48697   1.325  19.735   8.400  0.1938 -0.2502 -0.1216
17482W        W48698  24.893   5.651   2.646  0.1942 -0.1209 -0.0407
17483W        W48699   7.671  20.345  10.170  0.0441  0.1838 -0.1357
17484W        W48700  23.620  15.639   8.576 -0.0108 -0.0759  0.2998
17485W        W48701  24.808  22.650   8.366 -0.0339  0.1180  0.1655
17486W        W48702  19.714   0.753   1.714 -0.1738  0.0670  0.1041
17487W        W48703  15.680  18.792   0.065 -0.1869 -0.0894 -0.0388
17488W        W48704  17.894   7.769   0.308  0.3673  0.0280 -0.1416
17489W        W48705  20.426  15.001   2.629 -0.0520  0.3000  0.2142
17490W        W48706   2.471  27.493   8.614  0.1174  0.0740 -0.1503
17491W        W48707   9.490   6.571   8.259  0.0145  0.0796 -0.0669
17492W        W48708  14.127  19.458   1.108 -0.2589  0.1169 -0.1506
17493W        W48709   1.933  17.118   3.058  0.2249 -0.0780 -0.0660
17494W        W48710  17.470   4.570   7.373  0.1369 -0.2058  0.2721
17495W        W48711   9.974   2.377   6.920 -0.1464  0.0260  0.0558
17496W        W48712   5.866   4.440   8.412 -0.0773 -0.0762  0.0373
17497W        W48713  15.864  14.288   0.362 -0.0314 -0.0820 -0.0048
17498W        W48714   1.925  10.745   9.179  0.0412 -0.0140  0.1484
17499W        W48715  26.257   4.446   1.153  0.0806  0.0485 -0.0587
17500W        W48716   6.231   3.175   8.710 -0.0277  0.3961 -0.0339
17501W        W48717  18.166  27.605   1.257 -0.1048  0.1372 -0.1308
17502W        W48718  19.686   7.518   1.621  0.2144 -0.1829 -0.4486
17503W        W48719  17.259  10.492   3.258  0.1063 -0.1489  0.0782
17504W        W48720  10.362  12.473   1.607  0.1249 -0.5011  0.0151
17505W        W48721  26.810   8.167  10.377  0.1378 -0.1165  0.2627
17506W        W48722  16.945  12.189   9.475 -0.2401  0.3330  0.2377
17507W        W48723  21.339  18.854   3.584 -0.0396 -0.0236  0.2475
17508W        W48724  23.999   7.703   8.276  0.1145  0.2541  0.3167
17509W        W48725  11.374  15.447   1.386 -0.1493  0.2848 -0.0777
17510W        W48726  10.222   2.947   8.453  0.1503 -0.2534  0.0574
17511W        W48727  20.977  25.025   2.165 -0.1482  0.2064  0.0875
17512W        W48728  13.005  17.221   9.323  0.1853  0.0624 -0.1236
17513W        W48729  23.991  21.586   9.083  0.0819 -0.2308 -0.1369
17514W        W48730  14.113   7.121   9.014 -0.1537  0.0132 -0.5126
17515W        W48731  13.289  13.329   9.753 -0.0879  0.0534  0.1765
17516W        W48732   7.042  20.368   2.682 -0.1736 -0.0113  0.0513
17517W        W48733  13.120  25.658   9.065 -0.1557 -0.0858  0.0930
17518W        W48734   9.538  26.620   2.258 -0.1694  0.2505 -0.1022
17519W        W48735  18.525   5.671   0.928 -0.0330 -0.1996 -0.0420
17520W        W48736  11.083   1.942   8.657  0.2984 -0.1354 -0.1910
17521W        W48737   3.215   3.562   8.694 -0.1806  0.1124 -0.0898
17522W        W48738  18.607   7.539   9.357  0.2344 -0.1155 -0.1981
17523W        W48739   2.719   2.972  10.397 -0.0940  0.2531  0.2808
17524W        W48740   3.196  14.633   7.883 -0.0047  0.0654  0.0616
17525W        W48741  17.471  25.386   0.489  0.0248 -0.3979  0.0229
17526W        W48742  26.179  12.075   9.744  0.3026 -0.3160 -0.0743
17527W        W48743  20.956  10.004   1.979  0.0004  0.0375 -0.0600
17528W        W48744  13.290   5.851   0.343 -0.2455  0.1928  0.3090
17529W        W48745  13.642  11.560   1.829 -0.1856  0.1898  0.1358
17530W        W48746   9.700  21.638   0.581  0.3099 -0.1508  0.0117
17531W        W48747  18.094   7.496   1.001 -0.0768  0.2745  0.0163
17532W        W48748   7.121  24.032   2.232 -0.2595 -0.1624 -0.3211
17533W        W48749  26.231  21.785   2.115 -0.2748 -0.2588 -0.1190
17534W        W48750   1.874  26.055   3.571 -0.2752 -0.1718 -0.1753
17535W        W48751   7.036  11.270   2.105  0.0293 -0.2422  0.2810
17536W        W48752  19.955  21.935  10.527  0.0482 -0.0454 -0.1591
17537W        W48753  15.108  25.623   3.237 -0.1110 -0.0804 -0.1334
17538W        W48754  19.210   6.558   8.290 -0.4897 -0.0325  0.0625
17539W        W48755  22.561  12.516   3.959  0.2671 -0.2025  0.0952
17540W        W48756  17.834   6.598   0.568  0.2947 -0.1173 -0.2031
17541W        W48757  25.257  20.939   3.067 -0.2280 -0.5851  0.0573
17542W        W48758   4.318  22.630   9.086  0.0292 -0.3504  0.0105
17543W        W48759   7.300  11.561   8.372  0.0322  0.1103  0.1557
17544W        W48760   3.953  19.319   0.574 -0.1588  0.0425  0.2202
17545W        W48761   5.161  22.718   1.695 -0.0020  0.2351  0.2261
17546W        W48762  18.850  16.732   9.317  0.4003  0.0489 -0.3039
17547W        W48763  13.807   2.555   2.671  0.2600  0.0475 -0.2158
17548W        W48764  20.385   6.056   8.291 -0.0028  0.0113  0.1644
17549W        W48765  13.412  16.650   1.889  0.2384 -0.2935 -0.0396
17550W        W48766  22.941   7.467   2.331 -0.1378  0.2501  0.1312
17551W        W48767   0.600  24.177   2.579 -0.2407  0.0413 -0.0502
17552W        W48768  15.544   4.951   2.853 -0.0729 -0.2515 -0.1260
17553W        W48769   4.892   2.534   2.113  0.0432  0.0945  0.3559
17554W        W48770   5.948  24.600   2.445 -0.3289 -0.0487 -0.2302
17555W        W48771   0.721  13.483   2.791  0.3888 -0.0310  0.3840
17556W        W48772   7.986   7.540   8.224  0.1090  0.0827 -0.0542
17557W        W48773  19.925   3.067   8.706 -0.1390 -0.1646 -0.2643
17558W        W48774  13.177   7.190   0.750  0.0597  0.2874 -0.1485
17559W        W48775  13.064  15.906  10.487  0.1556 -0.0191  0.2583
17560W        W48776  25.963  23.822   9.112  0.0121 -0.1917 -0.1505
17561W        W48777  14.881   2.276   1.130  0.0441  0.2067  0.0105
17562W        W48778  22.546   7.898   2.219 -0.0438 -0.1205 -0.0417
17563W        W48779  22.295  20.152   9.115  0.1261 -0.2900  0.0069
17564W        W48780  12.274   9.026   0.726 -0.1475 -0.4947  0.2485
17565W        W48781  14.397  21.685   2.748 -0.1623 -0.3066 -0.5126
17566W        W48782  11.721   9.180   3.112 -0.1590 -0.0307  0.0857
17567W        W48783   9.514   7.021   9.006 -0.0382  0.1719 -0.1823
17568W        W48784  10.541   8.682   7.876  0.1739 -0.0569 -0.0346
17569W        W48785  10.811   4.409   9.020 -0.0569 -0.0184 -0.0971
17570W        W48786  17.065  17.903   0.855 -0.0896 -0.0628 -0.4054
17571W        W48787  21.254  19.876   7.935  0.2018  0.5373  0.0861
17572W        W48788  14.283   4.418   9.057  0.1034 -0.0010  0.0233
17573W        W48789   6.341   7.324   0.327 -0.0998 -0.0074  0.0593
17574W        W48790  17.770  20.167   1.653  0.2243  0.1053  0.1015
17575W        W48791   2.011  21.323   7.501  0.2778 -0.1946 -0.1091
17576W        W48792  26.530  20.914   2.070  0.0403 -0.0655 -0.0039
17577W        W48793  23.035  20.208   9.512 -0.1268 -0.2007 -0.0685
17578W        W48794   1.131  16.132   2.449 -0.1269 -0.1685  0.2173
17579W        W48795   7.607  14.195   2.112 -0.2018 -0.0773 -0.1027
17580W        W48796  12.419  23.979   0.650 -0.3371 -0.0633 -0.1016
17581W        W48797  16.417  17.148   2.995 -0.2180  0.0717 -0.2990
17582W        W48798   7.522  14.581   1.827 -0.2690 -0.0654 -0.0969
17583W        W48799   4.684   6.269   8.895  0.2288  0.0576  0.1779
17584W        W48800  23.598  15.095   0.859 -0.5622 -0.0672 -0.2693
17585W        W48801   1.722   7.551   2.693  0.0740 -0.2250 -0.0854
17586W        W48802  26.705  13.818   2.795  0.0114  0.0329 -0.1479
17587W        W48803  21.441  25.930   8.770  0.1386 -0.0533  0.3181
17588W        W48804  12.439  25.044   0.710  0.2846  0.0417 -0.0056
17589W        W48805  18.283  23.879   3.617 -0.1986  0.1539 -0.1255
17590W        W48806  13.188  22.308   1.883 -0.0219 -0.0148  0.2399
17591W        W48807  23.170   4.393   0.410 -0.0909  0.2113 -0.1237
17592W        W48808  18.670   5.561   8.081 -0.0811  0.2648  0.1075
17593W        W48809  10.076   1.681   7.236 -0.2578  0.2547 -0.1081
17594W        W48810   3.098  13.378   7.904 -0.2248 -0.0171  0.1151
17595W        W48811   0.009  22.113   8.658 -0.2493 -0.1607 -0.2258
17596W        W48812   9.895  23.276   0.461 -0.0438  0.2243  0.0522
17597W        W48813   0.802  12.468   2.728  0.3183 -0.0861 -0.4720
17598W        W48814  18.553  15.703  10.143 -0.2723 -0.2314  0.0225
17599W        W48815  16.893  27.434   2.240  0.0831 -0.3505 -0.0096
17600W        W48816  11.369  18.338   2.657 -0.2540  0.3955 -0.4771
17601W        W48817   0.833   9.661   8.422 -0.0679 -0.0720  0.1115
17602W        W48818   0.947  16.873   8.536  0.1221  0.2248  0.1323
17603W        W48819  22.553  23.398   3.485  0.0151 -0.3515  0.0103
17604W        W48820   4.498  24.233   3.360  0.2943 -0.2007 -0.3481
17605W        W48821  25.865  26.518   8.567 -0.1265  0.0357  0.0841
17606W        W48822  24.736  15.555   8.865  0.2347  0.0228  0.0393
17607W        W48823  20.121  17.967   1.865 -0.1224 -0.2192  0.4453
17608W        W48824  18.304  12.499  10.069  0.0255  0.3071  0.1943
17609W        W48825  12.308  13.925   8.008 -0.1213 -0.3419 -0.2475
17610W        W48826   2.769  11.137   7.424  0.4372  0.1459  0.2568
17611W        W48827  18.550   5.133   1.266  0.2462 -0.3044 -0.1996
17612W        W48828  26.201  11.989   8.756 -0.0248 -0.0149  0.2591
17613W        W48829  21.917  17.026   1.601 -0.0281  0.1533 -0.1927
17614W        W48830  26.530  10.185   8.939 -0.1549 -0.0544 -0.2018
17615W        W48831   0.759  24.372   1.089  0.0378 -0.2375 -0.0440
17616W        W48832   8.242  23.981  10.140  0.2592  0.0211  0.2232
17617W        W48833  20.835   3.639   9.561 -0.0274 -0.0672 -0.2144
17618W        W48834   2.242  13.876   2.684  0.1317 -0.0640 -0.1178
17619W        W48835   7.678  15.774   0.866  0.0308 -0.0673 -0.0259
17620W        W48836  14.187  19.058   2.147  0.1943 -0.3247  0.0010
17621W        W48837  17.479   3.715   8.654  0.1175 -0.1215 -0.1021
17622W        W48838   7.819   2.736   1.886 -0.1734 -0.1734 -0.0428
17623W        W48839  18.356  10.889   0.100 -0.0743 -0.0744 -0.0146
17624W        W48840  20.209   8.531   7.739 -0.0007 -0.0612 -0.0733
17625W        W48841  22.583   9.308   3.369 -0.3674 -0.1678  0.0266
17626W        W48842  17.519  25.413   3.737  0.0073  0.0953 -0.2492
17627W        W48843  13.580  15.758   8.808 -0.3202  0.1134 -0.2260
17628W        W48844   5.483  19.013   2.872 -0.0908  0.1083  0.0980
17629W        W48845  19.355  14.469   9.015  0.0633  0.2639 -0.1401
17630W        W48846   8.252  16.665   7.585  0.1470 -0.5762 -0.0809
17631W        W48847  24.793  17.921   9.824  0.2951 -0.0785  0.0024
17632W        W48848  27.318  17.059   7.834 -0.1454 -0.1423 -0.1918
17633W        W48849  15.324  26.674   2.507 -0.0281  0.1496 -0.0973
17634W        W48850  13.537  15.391  10.254 -0.0284  0.2112 -0.1203
17635W        W48851   0.698  17.908   3.947 -0.1448  0.0703 -0.1270
17636W        W48852   0.138  18.744   9.116  0.0411  0.0175  0.0448
17637W        W48853   9.946   1.421   0.238  0.1354 -0.1176 -0.1842
17638W        W48854  22.956   8.019   9.681 -0.4423 -0.2138 -0.4081
17639W        W48855  20.674   1.466   9.330  0.3696 -0.0791 -0.3054
17640W        W48856  24.157   7.650   9.089 -0.2065 -0.0821 -0.0576
17641W        W48857  20.773  19.014   2.661 -0.1799 -0.1634  0.0316
17642W        W48858   3.419  14.845   2.388 -0.0684 -0.0257  0.1177
17643W        W48859  16.592   0.704   1.107 -0.1371  0.3221  0.4112
17644W        W48860  19.067  10.777  10.168 -0.3117  0.3922  0.0479
17645W        W48861   6.574   2.989   0.511  0.0823 -0.0646  0.1968
17646W        W48862   4.714  17.809   8.166  0.0999 -0.1272 -0.1680
17647W        W48863  25.703   7.144  10.265  0.1730 -0.0472  0.1578
17648W        W48864   9.605  22.883   0.594  0.3291  0.2518  0.3414
17649W        W48865  19.148  21.122   9.603 -0.2223  0.1089  0.0381
17650W        W48866   7.329  26.723   9.717  0.0662  0.1473  0.0347
17651W        W48867   7.325  24.520   8.488  0.0774 -0.0185  0.0624
17652W        W48868   5.916   7.653   9.215 -0.2006 -0.0583 -0.0237
17653W        W48869  22.931   2.975   0.947 -0.1374  0.1742  0.1069
17654W        W48870   1.683  16.928   9.432 -0.1469 -0.1480  0.1366
17655W        W48871   5.008  25.671   3.204 -0.0286  0.1635 -0.1460
17656W        W48872  21.381   9.293   7.340 -0.1671 -0.2388  0.0983
17657W        W48873   3.114   6.779   0.983  0.0441 -0.1722 -0.0642
17658W        W48874  13.539  25.407   0.462 -0.5602 -0.2543 -0.2799
17659W        W48875  23.286  22.978   7.116  0.0819  0.0123 -0.0496
17660W        W48876   9.643   2.589   7.761  0.2959  0.4352  0.2819
17661W        W48877   5.246  15.441   7.826  0.1199  0.0762 -0.1155
17662W        W48878  23.722  13.101   9.636 -0.2773  0.3741  0.3843
17663W        W48879  17.446  25.305   9.248  0.0891 -0.0120 -0.0053
17664W        W48880  14.446  26.577   4.233 -0.1553  0.1838 -0.1313
17665W        W48881   6.729   3.289   1.845 -0.0367 -0.0207 -0.0818
17666W        W48882   6.842  14.062   7.267 -0.3335  0.1803 -0.1091
17667W        W48883  18.005  26.909   7.984  0.1205  0.1398  0.4222
17668W        W48884  13.894  14.900   2.963  0.0214 -0.1439 -0.0637
17669W        W48885  18.249  10.384   7.149 -0.0873 -0.0523  0.0915
17670W        W48886  10.575   9.273   0.829 -0.1661 -0.1123 -0.2690
17671W        W48887  24.524   6.971   0.327  0.1104 -0.2599 -0.1288
17672W        W48888   5.445  15.584   8.833 -0.0850  0.0418 -0.2186
17673W        W48889  10.108  25.206   0.153 -0.0528  0.0748 -0.0654
17674W        W48890  24.932   9.414   0.029  0.3153  0.1645  0.0687
17675W        W48891  16.954  20.592   3.398  0.1257  0.3565 -0.2051
17676W        W48892  20.641   6.014   2.108 -0.0231  0.0125  0.0967
17677W        W48893   4.628  23.867   7.746 -0.2135  0.1727 -0.3711
17678W        W48894  24.058  11.770   3.285 -0.0257 -0.1021  0.0777
17679W        W48895  10.388  17.866   0.393  0.0605 -0.0598  0.0548
17680W        W48896  15.220  27.549   0.128 -0.0983  0.1734 -0.1586
17681W        W48897   4.655  19.661   2.107  0.0734 -0.1731 -0.1472
17682W        W48898  15.247  20.553   9.863 -0.0667 -0.1263 -0.2743
17683W        W48899   9.704  27.376   2.595 -0.1977 -0.1054 -0.0685
17684W        W48900   1.878  16.856  10.064 -0.1027 -0.2196 -0.1564
17685W        W48901  27.565  12.939   9.951 -0.3496  0.0795  0.0052
17686W        W48902  18.288   0.218   0.064  0.0071  0.0766 -0.1908
17687W        W48903  23.742   4.302   8.491 -0.2621  0.0839 -0.1820
17688W        W48904  15.093  17.063   2.159 -0.0975  0.0810  0.0821
17689W        W48905   7.905  11.273   1.864 -0.0605  0.1874 -0.1574
17690W        W48906   3.263  21.189   3.675  0.1705  0.1867 -0.1453
17691W        W48907   0.692   4.819   8.689  0.3202  0.0409 -0.1333
17692W        W48908   8.461  18.002  10.370  0.2008  0.0657  0.0618
17693W        W48909   3.849  17.310   9.141 -0.3677  0.3972 -0.0671
17694W        W48910  15.115  16.657  10.173 -0.1725 -0.0034 -0.2008
17695W        W48911  18.288  10.022   1.584 -0.3371 -0.0830 -0.1024
17696W        W48912  20.805  13.979   2.384 -0.2515  0.1706 -0.0880
17697W        W48913   8.510  26.479   3.848 -0.1568 -0.4165  0.1201
17698W        W48914  22.588  12.972   9.069  0.0678 -0.2519 -0.0791
17699W        W48915  13.361  27.433   9.506  0.4446 -0.0387 -0.0256
17700W        W48916  27.152   3.527   3.412 -0.0235  0.0262 -0.1349
17701W        W48917  16.130   6.273   2.394 -0.2138  0.1429 -0.4613
17702W        W48918  24.287  15.584   0.420  0.0194 -0.3779  0.3463
17703W        W48919   2.965  23.362   3.738 -0.2935  0.2365 -0.1960
17704W        W48920   3.633   0.456   1.693  0.1427 -0.0934  0.0002
17705W        W48921   4.160   2.510   9.084 -0.1547  0.2763  0.1242
17706W        W48922  25.382  23.808   7.574 -0.0163  0.0329 -0.0938
17707W        W48923  12.989  15.547   8.264  0.0210 -0.1245  0.2574
17708W        W48924  25.274  15.507   8.273 -0.1373 -0.0320 -0.0662
17709W        W48925   5.476   9.573   0.016  0.1114 -0.0623  0.1022
17710W        W48926  11.732  17.224   0.346 -0.3516 -0.0335  0.3211
17711W        W48927  22.497   2.698   8.369 -0.1946 -0.0883 -0.0732
17712W        W48928  20.707  22.340  10.053  0.1784 -0.4467 -0.2375
17713W        W48929   5.176   5.245   0.401  0.0692  0.0653 -0.4402
17714W        W48930   4.033  15.581   1.281  0.0635 -0.0519 -0.0500
17715W        W48931  12.576  11.748   2.950 -0.1644 -0.1367  0.1754
17716W        W48932  17.104  16.373   9.517 -0.1401  0.1146 -0.2518
17717W        W48933  17.260   0.931   2.183  0.2346  0.2980 -0.1296
17718W        W48934  20.105  19.481   9.669  0.4097 -0.1370  0.1365
17719W        W48935   0.657  27.120   3.913  0.0281 -0.1739  0.1448
17720W        W48936   9.093   1.238   2.586 -0.3850  0.0656  0.2163
17721W        W48937   4.334   5.317   0.667  0.0036  0.0656  0.0244
17722W        W48938  16.295  17.388   0.118 -0.0325 -0.2611 -0.1428
17723W        W48939   2.776  13.392   9.177  0.0733 -0.0371 -0.0543
17724W        W48940  26.148  13.313   3.352  0.3551 -0.0847  0.0737
17725W        W48941  21.042  15.516   9.294 -0.2306 -0.3057  0.2703
17726W        W48942  11.507  21.696   7.421  0.1251 -0.0524  0.4050
17727W        W48943  19.089  20.104   0.553  0.0680 -0.1752 -0.0620
17728W        W48944  19.975  23.745   1.076 -0.1033  0.2004  0.0608
17729W        W48945  24.224   3.154  10.201 -0.1514 -0.2015 -0.2320
17730W        W48946   3.876  26.045   0.910 -0.0195  0.2253 -0.1871
17731W        W48947  13.696   6.768   3.147  0.3146 -0.2213  0.1442
17732W        W48948  22.687  15.704  10.251 -0.3349  0.1396 -0.0680
17733W        W48949  11.985  11.910   0.422  0.2117 -0.0774  0.1120
17734W        W48950   8.752  17.287   9.206 -0.5403  0.0216  0.0854
17735W        W48951  21.783   2.464   2.295  0.0257  0.1126  0.0750
17736W        W48952   7.658  17.129   0.522 -0.0003 -0.2145 -0.4274
17737W        W48953  27.015   2.797   2.775  0.0364 -0.0170 -0.2200
17738W        W48954  16.745  20.672   8.919 -0.0733  0.1241  0.0505
17739W        W48955  19.592   9.139   8.683 -0.0458 -0.3291  0.2473
17740W        W48956   0.842   8.612   2.879 -0.1516  0.1343  0.2329
17741W        W48957  22.739  18.579   8.056  0.0692  0.2205  0.0617
17742W        W48958  10.529  15.497   1.565  0.0258 -0.1766  0.0889
17743W        W48959  10.340  23.126  10.137 -0.1256  0.0750 -0.1800
17744W        W48960   2.877  22.097   9.184  0.2719  0.1698  0.0361
17745W        W48961  24.554  18.800   1.104 -0.1859 -0.2033  0.2784
17746W        W48962  21.957  12.317   0.149 -0.0173  0.0533  0.2511
17747W        W48963   8.484  27.209   8.607 -0.1561 -0.3440  0.0464
17748W        W48964  17.793  24.356   9.898 -0.2664 -0.0997  0.1577
17749W        W48965   2.780  25.957   8.563 -0.1040  0.1659 -0.1067
17750W        W48966   5.844  26.175   9.871 -0.1618 -0.3195  0.1878
17751W        W48967  12.513   3.626   2.235 -0.2964  0.0085  0.1321
17752W        W48968   4.540   6.414   9.909 -0.1028  0.0179 -0.1488
17753W        W48969  24.166   0.845   2.839  0.2227  0.1350 -0.0905
17754W        W48970  17.843  24.583   0.039  0.2413  0.1506  0.0373
17755W        W48971  19.485  17.895   2.401 -0.1135  0.0254  0.1188
17756W        W48972  24.152  13.345   1.401  0.2406  0.0365  0.0178
17757W        W48973  26.701  21.734   8.573  0.0044 -0.1613  0.1451
17758W        W48974  18.499   9.036   8.971 -0.1514 -0.0350 -0.0099
17759W        W48975  27.563  18.853   8.277 -0.1631 -0.1559  0.1554
17760W        W48976   3.288  16.207   8.732  0.0594 -0.1195 -0.1644
17761W        W48977   9.551  14.687   8.949 -0.2767  0.0879 -0.0006
17762W        W48978  18.924  22.318   0.340 -0.1537 -0.2231 -0.1703
17763W        W48979  12.345  10.191   2.714  0.1145 -0.1952  0.0426
17764W        W48980  16.951  21.934   3.703 -0.2281  0.1292  0.0117
17765W        W48981   1.545  23.045   0.768 -0.3407 -0.0796  0.3370
17766W        W48982   9.456   4.197   8.735  0.3309 -0.0498 -0.0681
17767W        W48983  12.043  12.059  10.019  0.0146  0.1136 -0.2434
17768W        W48984  11.165  27.115   8.909 -0.0564  0.1713  0.2086
17769W        W48985   1.351  12.361   2.701  0.0461 -0.0736 -0.2201
17770W        W48986   6.820   1.112   8.346 -0.1030 -0.1232 -0.1183
17771W        W48987  13.750  12.835   0.036  0.0915  0.1239 -0.5564
17772W        W48988   8.435  17.517  10.052 -0.2611  0.1161  0.3152
17773W        W48989   1.835   1.159   0.298 -0.2330 -0.1285  0.2732
17774W        W48990   3.460   0.621   8.899  0.2799  0.2939  0.2000
17775W        W48991  18.911   9.743   7.511  0.3342 -0.0656  0.0805
17776W        W48992  22.462  10.736   9.418 -0.2109  0.4188 -0.0540
17777W        W48993  14.297  23.881   8.594 -0.1316  0.0549  0.1553
17778W        W48994  10.959  22.052   7.595 -0.2921 -0.0652  0.4400
17779W        W48995   7.984   2.449  10.327  0.1463 -0.1666  0.2250
17780W        W48996  19.112  26.788   1.449 -0.1900 -0.1081 -0.0867
17781W        W48997  17.784  25.614   8.347  0.0849 -0.0345  0.1760
17782W        W48998  13.598   0.680   9.565  0.2145 -0.1414 -0.0109
17783W        W48999  20.351  12.550   0.030 -0.0676 -0.1494 -0.0056
17784W        W49000   4.361   1.708   2.997  0.5778  0.1226  0.1044
17785W        W49001  10.280   0.742   2.915  0.1695 -0.1469 -0.1996
17786W        W49002  24.098   1.582   0.706 -0.0225 -0.1824  0.0383
17787W        W49003   6.890  23.360   8.636 -0.0442  0.1531  0.0218
17788W        W49004   7.244  24.950   2.681  0.2299 -0.2140  0.0287
17789W        W49005  15.268  13.057   9.287  0.2545  0.1950  0.0763
17790W        W49006  11.237   6.543   7.751 -0.1108  0.1670  0.0763
17791W        W49007  15.438  23.564   0.754  0.2158 -0.0091 -0.5747
17792W        W49008  16.576   0.108   8.747  0.0081  0.1874 -0.1689
17793W        W49009   3.282  19.402   8.032 -0.1703 -0.1775  0.0386
17794W        W49010  15.986  19.498   9.890  0.0754 -0.0405  0.0720
17795W        W49011   1.776  21.400   3.918 -0.2906  0.0093  0.2018
17796W        W49012  23.173  20.986   9.933 -0.0501  0.1882  0.1298
17797W        W49013  25.395   8.728   3.263 -0.2983  0.1331 -0.4342
17798W        W49014   3.206  22.466   3.667  0.0587  0.0283  0.0351
17799W        W49015   7.231  12.270   2.055  0.2483 -0.1783  0.0094
17800W        W49016   5.090  12.378   8.750 -0.0685 -0.2095 -0.1486
17801W        W49017  24.490   6.260   1.589  0.0097 -0.0271  0.4225
17802W        W49018  22.173   6.684   8.801  0.1215  0.0461 -0.0570
17803W        W49019   0.124   3.859  10.173 -0.0885  0.3717 -0.1090
17804W        W49020  16.038  11.401  10.219  0.3397  0.3756  0.1533
17805W        W49021   4.139  10.653   0.381  0.1985  0.3360  0.0442
17806W        W49022  21.474   7.265   8.057 -0.0037 -0.3399  0.1205
17807W        W49023  12.845  16.268   2.430  0.2604  0.1161  0.0601
17808W        W49024  20.861  24.124   2.008  0.0622 -0.2591 -0.0311
17809W        W49025  10.060  18.872  10.026 -0.2049  0.0024 -0.1302
17810W        W49026  17.744  22.356   7.828  0.1433  0.1253  0.1465
17811W        W49027   8.810   0.193   9.832  0.3348 -0.3211 -0.0431
17812W        W49028   6.615  18.320   2.855 -0.0945  0.3381  0.3428
17813W        W49029   5.910  10.082   9.125  0.1049  0.0931 -0.1402
17814W        W49030  15.626   2.408   9.391 -0.1059  0.0407 -0.4602
17815W        W49031  22.284   8.281   0.036  0.0106 -0.1703 -0.1081
17816W        W49032  18.746  13.420  10.127  0.0285 -0.1152  0.0035
17817W        W49033  21.542  19.053   7.705  0.1378 -0.2629  0.1606
17818W        W49034  12.203  27.312   0.540 -0.0395 -0.1230 -0.0445
17819W        W49035  12.956   8.676   3.684  0.2154  0.0800  0.1172
17820W        W49036   4.938  24.039   2.082  0.0368 -0.0396  0.0882
17821W        W49037   7.198  23.629   8.223 -0.1237  0.1733  0.0641
17822W        W49038  11.679   0.155   9.260 -0.2001 -0.3829  0.3924
17823W        W49039   7.107   1.055   1.807 -0.0859  0.2238  0.0853
17824W        W49040   1.580   8.028   9.753 -0.0970  0.2351 -0.1924
17825W        W49041   7.525  25.849   9.057  0.1385 -0.0346  0.0080
17826W        W49042  26.244  17.295   8.464  0.1667 -0.1220  0.0141
17827W        W49043   6.237  22.016   1.628 -0.5447  0.0046  0.0841
17828W        W49044  12.835  19.951   0.486  0.1473 -0.0264 -0.0227
17829W        W49045   0.866  16.546   9.094 -0.2663  0.0988 -0.0039
17830W        W49046   3.201   9.831   2.481 -0.3491  0.0264 -0.1614
17831W        W49047  24.328  18.089   7.528  0.1894 -0.2340 -0.0699
17832W        W49048  19.710  21.162   1.343  0.1155 -0.2083 -0.1676
17833W        W49049  14.140  17.922   8.329 -0.0108  0.2643  0.0256
17834W        W49050  25.813   4.631   9.341  0.3424 -0.0338 -0.0345
17835W        W49051  17.151  13.840   9.349  0.1630 -0.3255  0.1240
17836W        W49052   0.729  25.218   7.694 -0.0412 -0.0683  0.1457
17837W        W49053  26.574   7.998   3.432 -0.1466 -0.2198  0.0327
17838W        W49054   4.657  17.931   1.701  0.2408  0.0231 -0.1254
17839W        W49055   5.742  17.673   0.781 -0.0689 -0.2408 -0.1576
17840W        W49056   2.425   1.980   8.499 -0.0002 -0.2985  0.0319
17841W        W49057   1.988  25.417   1.134  0.0527 -0.1502  0.2325
17842W        W49058  17.413   2.167  10.279  0.1445  0.1940  0.1447
17843W        W49059  11.671   7.056   8.546  0.1597  0.0413 -0.0389
17844W        W49060  19.818  22.538   3.940  0.3353 -0.1152  0.1152
17845W        W49061   4.570  22.515   1.506 -0.0382  0.0862  0.1929
17846W        W49062  20.782   4.808   1.520 -0.1599 -0.1474  0.0347
17847W        W49063  11.171   1.445   8.666  0.1447  0.1519 -0.0327
17848W        W49064  15.840   4.759   8.681 -0.1563 -0.0211  0.3673
17849W        W49065  22.942  11.518   1.946  0.0683 -0.1560 -0.0868
17850W        W49066  18.762   2.033   0.566  0.1110 -0.1934  0.1034
17851W        W49067  20.569  10.741   7.396  0.1537 -0.1916 -0.1223
17852W        W49068   3.158  20.467   3.763 -0.0787  0.0121  0.1692
17853W        W49069  21.830  10.079   8.577 -0.3397 -0.4375 -0.0586
17854W        W49070  15.282  15.069   2.161  0.3042  0.1140  0.1782
17855W        W49071  19.222  13.581   8.092 -0.0395 -0.4189  0.2886
17856W        W49072  17.765   9.846  10.253  0.0882  0.2227  0.1124
17857W        W49073  19.048  23.085   8.490  0.0147  0.0488 -0.1652
17858W        W49074   1.202  27.120   1.688  0.0797 -0.0832  0.3384
17859W        W49075  11.883  22.131   0.892 -0.1284 -0.1780  0.0172
17860W        W49076   1.322  19.483   3.607 -0.0790 -0.0395  0.1311
17861W        W49077  20.816   5.794   0.307 -0.2380 -0.0862  0.1241
17862W        W49078  25.755  20.945   8.698 -0.0881 -0.2110  0.0965
17863W        W49079   4.249   6.396   2.784 -0.0369 -0.2142  0.2668
17864W        W49080   0.599  17.913   0.237  0.0812 -0.1925 -0.0327
17865W        W49081  18.722  22.966   9.718 -0.4065  0.0925 -0.0493
17866W        W49082   6.059   2.949  10.039  0.0327  0.0881 -0.0372
17867W        W49083   3.129  24.368   1.502  0.0638 -0.0717 -0.1182
17868W        W49084   8.269   4.068   9.141  0.1749 -0.0033 -0.2546
17869W        W49085  19.859  13.578   0.795  0.0155  0.2392 -0.1967
17870W        W49086  12.992   9.242   0.781  0.1625  0.2029 -0.2221
17871W        W49087   0.358   6.214   7.826  0.2702  0.2637  0.2423
17872W        W49088  20.167   9.945   2.080 -0.1218  0.0067 -0.1070
17873W        W49089  21.989   7.326   8.108 -0.0195  0.0236 -0.1390
17874W        W49090   1.415  12.569   1.418 -0.1476 -0.0704 -0.1743
17875W        W49091  14.050  11.244   1.504  0.1576  0.0613 -0.1493
17876W        W49092  23.061   0.331  10.471 -0.1231 -0.2818  0.1771
17877W        W49093   2.297   5.421   3.923  0.0227 -0.1385  0.0755
17878W        W49094   4.513  11.396   9.708 -0.1510  0.2093 -0.2818
17879W        W49095  23.469   5.505   2.298  0.1166 -0.0260  0.0581
17880W        W49096  13.088  19.659   8.918  0.3663 -0.2641 -0.0452
17881W        W49097   8.429  13.442   0.024  0.0509  0.3124 -0.0919
17882W        W49098  19.634  20.327   3.849  0.1558 -0.0519  0.2531
17883W        W49099  22.681  26.993   7.302 -0.0565 -0.0280 -0.2286
17884W        W49100  23.798  25.270   7.621  0.0337 -0.0428  0.3080
17885W        W49101   2.651  11.727  10.406 -0.0883 -0.3911  0.0381
17886W        W49102  14.145  19.744   8.576 -0.0617 -0.0186  0.2572
17887W        W49103  15.234   5.509   7.527  0.1806  0.3892  0.2120
17888W        W49104  11.892  11.786   2.550  0.0514  0.1603  0.0269
17889W        W49105   0.078  21.607   2.252  0.1251 -0.0872 -0.0338
17890W        W49106  19.299  18.387  10.049 -0.0443 -0.0794  0.1022
17891W        W49107  19.387   6.353   6.641  0.2859  0.0239  0.1813
17892W        W49108  22.740   9.746   3.285 -0.0497  0.1252  0.0790
17893W        W49109  12.917  22.457   2.337  0.2781  0.3153 -0.3830
17894W        W49110  17.604   6.951   9.042  0.2951 -0.0732  0.5106
17895W        W49111   0.837   3.833   9.338 -0.1423  0.0840 -0.0821
17896W        W49112  11.318  25.987   1.894 -0.1199 -0.2083 -0.4314
17897W        W49113   1.358   5.303  10.342  0.0084 -0.1157 -0.0348
17898W        W49114  16.909  25.831   3.455 -0.4416 -0.0855 -0.5462
17899W        W49115  20.721  16.768  10.209  0.0174  0.0285 -0.0364
17900W        W49116  13.531   7.848   9.598  0.0698  0.0203  0.1860
17901W        W49117   8.210  23.746   9.678 -0.2933 -0.2344 -0.0480
17902W        W49118  14.926   1.845   8.989 -0.1317 -0.0635  0.0581
17903W        W49119  11.877  17.144   1.923  0.1936  0.1675  0.5003
17904W        W49120  13.114  26.767  10.374  0.1262  0.0069 -0.2609
17905W        W49121  11.305  15.433   3.071  0.2807 -0.2940  0.0428
17906W        W49122  26.227  23.279   8.585 -0.0199 -0.0175  0.2712
17907W        W49123  21.334  21.749   9.528  0.0785 -0.1567 -0.1342
17908W        W49124  23.404  19.617   1.985  0.2716  0.0012 -0.0091
17909W        W49125   0.951   0.979   3.493 -0.0950  0.4631  0.1803
17910W        W49126  26.856   6.633  10.205  0.0174 -0.1810  0.0826
17911W        W49127   0.110   8.149   4.107  0.0214 -0.2105 -0.0162
17912W        W49128  12.008   4.563   1.692 -0.1357  0.1160 -0.1470
17913W        W49129   1.806   7.945   8.653 -0.1392 -0.0513 -0.0049
17914W        W49130  14.509  25.723   1.207  0.1366 -0.1353  0.1493
17915W        W49131  25.550   8.039   2.180  0.0435  0.1165 -0.0355
17916W        W49132  11.147  23.995   0.958 -0.0387 -0.2255 -0.2553
17917W        W49133  10.150  19.548   7.860 -0.0669  0.0592  0.1581
17918W        W49134  10.454   5.816   1.969  0.0482  0.1438  0.1193
17919W        W49135   4.851  14.606   2.518  0.0196  0.0911  0.0789
17920W        W49136  21.320  19.035   0.265 -0.0087 -0.0110  0.2220
17921W        W49137   2.193   1.696   3.097  0.1351  0.2901 -0.2231
17922W        W49138  10.948   1.403   9.163 -0.1434 -0.0990  0.4178
17923W        W49139   7.035  20.074   0.328  0.1959  0.0386  0.2234
17924W        W49140  17.336  12.375   7.260  0.2394  0.2437  0.2573
17925W        W49141  17.269  18.147   2.241  0.0560  0.3526 -0.0832
17926W        W49142  26.642  12.828   2.927  0.2330 -0.0647 -0.1203
17927W        W49143  10.603  26.917   9.064  0.2283 -0.0035  0.0128
17928W        W49144   9.055  12.511   8.389  0.1273  0.2664  0.0173
17929W        W49145   2.389   9.785   7.634 -0.0920  0.3615  0.0036
17930W        W49146  15.442  22.170  10.415 -0.0516 -0.1332 -0.2279
17931W        W49147  18.549  13.938   0.556 -0.0295 -0.0791 -0.0419
17932W        W49148   5.294  18.894   1.521 -0.2210 -0.0926  0.5183
17933W        W49149  20.039  10.872   3.065  0.0881 -0.0099 -0.2444
17934W        W49150  10.749  24.719   9.317  0.0234  0.0719  0.1573
17935W        W49151  27.228  23.071   2.703  0.1998  0.0630  0.2291
17936W        W49152   4.350   7.661   9.655  0.2031  0.0858 -0.1968
17937W        W49153   4.512  19.938   8.415  0.1191 -0.2394 -0.2341
17938W        W49154  14.581   0.772   1.413 -0.1305  0.1001 -0.2295
17939W        W49155  25.265   3.319   8.330  0.4427 -0.0956  0.0885
17940W        W49156   2.508  12.719  10.074  0.0639 -0.1270  0.2631
17941W        W49157   9.053   6.692   7.335  0.2147  0.0706 -0.1792
17942W        W49158  16.100   3.169   0.690 -0.0411 -0.0049 -0.3360
17943W        W49159  24.101  21.292   7.416  0.2466 -0.2304 -0.0121
17944W        W49160   5.683  12.160  10.068 -0.0284 -0.1485  0.1280
17945W        W49161  22.025  19.234   9.995 -0.0575 -0.0418 -0.2274
17946W        W49162  26.326  25.351   0.764  0.0337 -0.1862  0.2114
17947W        W49163  19.087   1.815   3.014 -0.2400  0.1211  0.0533
17948W        W49164  17.673   3.988  10.071  0.0212  0.2767  0.1459
17949W        W49165   3.111   9.580  10.527  0.0533 -0.1813  0.3940
17950W        W49166   5.143   4.375   8.342 -0.0611 -0.0693  0.0359
17951W        W49167   4.561  15.999   0.644 -0.2623  0.2142  0.3338
17952W        W49168  15.131  16.292  10.531  0.0064  0.1518  0.1714
17953W        W49169  24.807   5.334   1.672 -0.2973  0.0050  0.0291
17954W        W49170   2.273  17.232   2.605  0.2088 -0.2649  0.1117
17955W        W49171  12.681  24.351   9.149  0.0045 -0.5029  0.0654
17956W        W49172   0.034   3.853   9.131  0.0974 -0.1802  0.1520
17957W        W49173   7.194  17.117   1.730  0.3561 -0.0950  0.2010
17958W        W49174   8.536  14.358   7.981 -0.5942  0.1759  0.0104
17959W        W49175  14.979  21.549   0.882 -0.1401 -0.0364  0.2860
17960W        W49176   0.487   7.324   0.096  0.1384  0.0806  0.0159
17961W        W49177  27.432   8.034   8.497  0.0863  0.0316 -0.4237
17962W        W49178  16.253   3.443   0.319  0.0878  0.0456 -0.3172
17963W        W49179  18.757  16.573   2.632 -0.1582  0.2097  0.1491
17964W        W49180  23.790  13.924   0.307  0.1267  0.4270  0.0321
17965W        W49181  15.275   9.733   8.693 -0.1913 -0.1762 -0.0365
17966W        W49182  14.821  18.011   0.910 -0.0659 -0.2189  0.0081
17967W        W49183  17.267  14.565   1.121  0.0109  0.0348  0.2017
17968W        W49184  13.089  15.184   1.041 -0.0783 -0.1884 -0.3644
17969W        W49185   5.536  10.421   1.582 -0.1194 -0.1854 -0.0634
17970W        W49186   1.122  21.970   9.067 -0.2212  0.0431 -0.1603
17971W        W49187   7.632  14.119   9.440  0.0262 -0.0952 -0.0716
17972W        W49188   2.763  24.276   1.080 -0.0838  0.1063  0.0157
17973W        W49189  11.423  26.252   8.939 -0.4324  0.0733 -0.1515
17974W        W49190  14.100  23.771   9.676 -0.2330 -0.0328  0.3796
17975W        W49191   1.921  20.107   0.892 -0.1564  0.0478 -0.1466
17976W        W49192  20.432   9.156   1.960  0.0284  0.1640 -0.0891
17977W        W49193  14.619   2.776   8.687 -0.0549  0.3126 -0.2506
17978W        W49194  17.280  26.327   3.348 -0.1317  0.2182 -0.2715
17979W        W49195  25.449  24.591   1.229 -0.1201  0.0232  0.4326
17980W        W49196   8.755   3.506   2.751 -0.0868  0.4146  0.1813
17981W        W49197   8.938  25.436   2.040 -0.1974  0.1221  0.1023
17982W        W49198   3.336  24.520   1.927 -0.0835  0.1940 -0.1161
17983W        W49199   7.614  12.285   1.250  0.2394  0.1668 -0.3345
17984W        W49200  20.542   2.617   2.802 -0.3199 -0.0641 -0.1127
17985W        W49201  25.672   4.436   2.889  0.3292 -0.2854 -0.0442
17986W        W49202  16.017   9.476   2.082 -0.1318 -0.0156  0.2248
17987W        W49203   2.781   7.340   2.728  0.2619 -0.0600 -0.2173
17988W        W49204  11.990   6.978   8.921  0.4144  0.1027 -0.1843
17989W        W49205   7.083  21.120   3.703  0.1553  0.0035  0.1646
17990W        W49206  22.951  16.227   2.104 -0.1523  0.1996  0.0549
17991W        W49207  20.648  19.311   8.593 -0.2689 -0.1624  0.3987
17992W        W49208   6.263   5.312   7.825 -0.0662  0.0856  0.1657
17993W        W49209  13.912   3.817   3.935  0.1093  0.1065 -0.1252
17994W        W49210   3.167   5.611   2.089 -0.1674  0.0537 -0.0505
17995W        W49211  21.307  26.593   8.136 -0.0344  0.1960  0.0866
17996W        W49212  23.108  17.215   8.482 -0.0967 -0.1290  0.0250
17997W        W49213  14.320  22.407   8.909 -0.0338  0.1603  0.1049
17998W        W49214   2.505   3.470   8.139  0.1045  0.1455  0.1282
17999W        W49215  27.146  25.967   2.754  0.2914 -0.1589 -0.1266
18000W        W49216   5.296   6.147  10.454 -0.0036  0.0119 -0.0833
18001W        W49217  17.427  12.785   9.968 -0.2384  0.0791 -0.0861
18002W        W49218   6.951  16.089   3.437 -0.2235 -0.0175 -0.0699
18003W        W49219  19.392   2.197   2.583 -0.1001 -0.2399 -0.0119
18004W        W49220  24.963  13.829   9.740 -0.2051 -0.3199  0.0737
18005W        W49221  10.160   9.780   9.551 -0.0283  0.1020  0.0167
18006W        W49222  27.605   0.333  10.121 -0.0326  0.1071 -0.2676
18007W        W49223   0.673   8.184   2.765 -0.1234  0.1988 -0.0157
18008W        W49224  20.387  23.038   2.884  0.0371  0.0347 -0.2856
18009W        W49225  23.919   6.447   9.145  0.3014 -0.1858  0.3424
18010W        W49226   1.560  16.412   9.294 -0.0915  0.0079  0.2980
18011W        W49227   7.457   4.842   2.125  0.0290  0.1208  0.1998
18012W        W49228  26.955  16.223   8.508 -0.0738 -0.0471  0.2251
18013W        W49229  22.522   9.037   2.885  0.0204  0.0540  0.1408
18014W        W49230   5.728  23.989   0.210 -0.4277 -0.1115  0.0430
18015W        W49231  15.086   1.359   0.821 -0.4598 -0.1844 -0.2063
18016W        W49232  12.885  12.211   8.681 -0.2031  0.1648  0.2479
18017W        W49233  21.949  12.267   9.730 -0.1750 -0.1603  0.2653
18018W        W49234   1.435   9.205  10.506 -0.1905 -0.1486  0.0158
18019W        W49235   7.877  22.631   1.799  0.1339  0.0470  0.2621
18020W        W49236  13.869  13.284   0.251 -0.0066  0.0137 -0.0211
18021W        W49237   3.489   5.487   0.135 -0.1165 -0.0748  0.1815
18022W        W49238  19.195   6.580   0.943 -0.0046 -0.3020 -0.2015
18023W        W49239  21.496   3.863   8.154 -0.3708  0.0594  0.0182
18024W        W49240  25.305  23.685   9.975 -0.2401  0.2128 -0.2133
18025W        W49241  27.114  19.159  10.040  0.1928  0.0634  0.0943
18026W        W49242  16.550   8.512   0.282  0.1882 -0.0476  0.0119
18027W        W49243   1.873  24.150   8.780  0.2243  0.3082  0.1019
18028W        W49244  15.844   8.758   8.337 -0.0011 -0.0793 -0.0668
18029W        W49245  23.692   0.815   3.148 -0.0652 -0.1374  0.0618
18030W        W49246   1.978  17.732   8.087 -0.0288 -0.1975  0.4252
18031W        W49247   4.881  17.435   7.890 -0.1475  0.1190  0.0519
18032W        W49248   5.831  12.759   1.198  0.1230  0.3761 -0.1162
18033W        W49249  21.995  11.822  10.057 -0.0116  0.0520  0.1838
18034W        W49250   4.225  27.351   2.817 -0.0641 -0.2638  0.0475
18035W        W49251   2.585   3.047   9.901  0.0435 -0.2475 -0.1891
18036W        W49252  26.040  26.640   2.703  0.1905 -0.4317  0.0658
18037W        W49253  21.769  26.838   2.536  0.0254  0.1993  0.1417
18038W        W49254  25.574  25.488   0.585 -0.0980  0.2028 -0.1601
18039W        W49255  16.159   2.896   3.616 -0.0668  0.1683  0.0231
18040W        W49256  20.461   7.645   0.498  0.0957  0.0051 -0.5469
18041W        W49257  21.535  27.219   2.727 -0.0409 -0.0157  0.0509
18042W        W49258   8.166   8.520   7.922 -0.0310  0.3068 -0.3390
18043W        W49259  11.568  17.925   4.005 -0.0511 -0.2666  0.1127
18044W        W49260  21.113  14.909   3.811  0.1281 -0.2122 -0.4340
18045W        W49261  13.029   1.434   2.432  0.3128  0.1086 -0.2550
18046W        W49262  26.487  26.130  10.052  0.0634 -0.1629 -0.0640
18047W        W49263  17.337  19.072   1.426 -0.0028 -0.1202  0.1036
18048W        W49264  15.321  24.008   2.908 -0.0422  0.1980 -0.2359
18049W        W49265   7.088   6.898   1.290  0.2349 -0.0683  0.1735
18050W        W49266  16.455   9.634   1.857 -0.1768 -0.1798 -0.0741
18051W        W49267   5.042  27.566   0.349  0.0524 -0.0522 -0.0909
18052W        W49268   3.255   0.358   2.415 -0.1587  0.0526 -0.1101
18053W        W49269  27.538  14.733   8.159  0.1136  0.1952  0.2408
18054W        W49270   4.933   5.269   9.696 -0.1403 -0.1185 -0.0651
18055W        W49271  26.165   1.395   2.467  0.5250 -0.0553  0.0974
18056W        W49272  10.654  22.969   8.236 -0.2326 -0.2258 -0.1408
18057W        W49273  27.473  23.091   2.038  0.1796  0.0085 -0.0897
18058W        W49274  12.639   1.022   9.355  0.0349 -0.1868 -0.2215
18059W        W49275  17.123  16.201   8.179  0.0462  0.2451 -0.1137
18060W        W49276  22.631  23.458   1.081 -0.0274  0.0093  0.0004
18061W        W49277  16.710   7.352   9.315  0.2194  0.2475  0.1763
18062W        W49278  22.483  17.839   1.629  0.0150  0.3657  0.1562
18063W        W49279  10.546  24.003   3.306 -0.3281  0.1706  0.2681
18064W        W49280  13.701  27.396   9.201 -0.2837 -0.0653  0.0107
18065W        W49281  12.028   0.161   9.772 -0.0282  0.0555  0.1178
18066W        W49282   4.156   1.672   8.795 -0.1766  0.2214 -0.1736
18067W        W49283  13.256   6.617   2.976 -0.0155  0.1943 -0.1908
18068W        W49284  22.797   8.869   3.257 -0.1040  0.0152 -0.3191
18069W        W49285  12.387  23.499   1.939 -0.0956  0.1471  0.0913
18070W        W49286   8.385   7.466   9.529 -0.0015 -0.0846  0.0105
18071W        W49287   0.926   4.174   0.645  0.2038  0.0435  0.2113
18072W        W49288  18.814  24.623   1.468 -0.1483 -0.2227 -0.0181
18073W        W49289   7.999  13.142   0.763  0.1072 -0.4523  0.2234
18074W        W49290  13.833   2.178   2.268 -0.2224  0.0262 -0.1805
18075W        W49291  17.779  12.247   2.639 -0.0809 -0.3348 -0.3971
18076W        W49292  22.893  12.398   1.562  0.1269  0.5359  0.1986
18077W        W49293   9.511  16.721   9.873  0.1778 -0.1389 -0.0975
18078W        W49294   6.936  12.425   0.072  0.1710  0.0636  0.0820
18079W        W49295  22.276  17.411   2.579 -0.0119 -0.1593  0.2605
18080W        W49296  10.868  11.673   9.926 -0.3227 -0.0014  0.1161
18081W        W49297  12.241  24.339   8.060  0.4212 -0.1464  0.3846
18082W        W49298  26.545  17.769   1.721 -0.0187 -0.2213  0.1315
18083W        W49299  12.065  20.276   9.670  0.0235 -0.3316 -0.5475
18084W        W49300  14.990  16.985   7.648 -0.1376  0.2898 -0.0071
18085W        W49301   6.353  17.248   0.365  0.0519 -0.2762  0.4892
18086W        W49302  13.029  22.325   0.357 -0.0170 -0.1739 -0.0973
18087W        W49303  14.309  16.596   0.833 -0.0649 -0.1686  0.0866
18088W        W49304  19.229  16.829   8.145 -0.1642  0.0515 -0.1724
18089W        W49305  12.590   3.074   9.422 -0.1302 -0.2457  0.3073
18090W        W49306   6.378  11.333   0.779  0.0764  0.1654 -0.1304
18091W        W49307  24.939  25.513   1.190  0.3463  0.1366 -0.1577
18092W        W49308  17.607  19.482   9.261 -0.5068 -0.0330 -0.0356
18093W        W49309  18.934   2.342   2.794 -0.2433  0.0381 -0.1225
18094W        W49310  17.944  25.596   2.230 -0.0115 -0.0190  0.2561
18095W        W49311  11.473  27.249   9.278  0.0687  0.0892  0.1656
18096W        W49312  23.705   9.239   1.045  0.0903 -0.1366 -0.0033
18097W        W49313  24.972  10.724   9.142  0.1753 -0.3809 -0.0508
18098W        W49314  17.171  26.313   2.826 -0.0474 -0.1726 -0.1077
18099W        W49315   4.245   1.344   7.829  0.3453 -0.0188  0.2686
18100W        W49316  15.978   8.939   9.397 -0.3851  0.0767 -0.2788
18101W        W49317   4.773  13.074   1.335  0.0796 -0.1711 -0.2797
18102W        W49318  23.157  13.877   8.080 -0.2790  0.0233 -0.3209
18103W        W49319   4.422  18.793   3.733  0.1113  0.2493 -0.3302
18104W        W49320  22.751   6.823   2.905 -0.4289 -0.0945  0.0599
18105W        W49321   3.693  10.075   9.593 -0.0734  0.0187 -0.2132
18106W        W49322  25.277   2.835   3.604  0.3372  0.1500 -0.4240
18107W        W49323  21.124  12.888   6.909  0.0156  0.3191 -0.2678
18108W        W49324   2.022  13.458  10.277 -0.0388 -0.3089 -0.3817
18109W        W49325  19.356  22.309   0.052  0.0675 -0.4166 -0.1514
18110W        W49326   4.365  11.957   3.473  0.0877 -0.2119 -0.2866
18111W        W49327   2.783   4.036   1.463 -0.0009 -0.1889  0.3238
18112W        W49328  20.939  11.780  10.191 -0.1535 -0.2562  0.1846
18113W        W49329   3.951  17.173   2.157 -0.0927 -0.3027  0.4159
18114W        W49330  27.345  19.995   7.541 -0.0380  0.0079 -0.1373
18115W        W49331   8.571   5.337   8.075 -0.0745 -0.1205 -0.1607
18116W        W49332  24.794  18.044   2.630  0.2257  0.1425 -0.0577
18117W        W49333  21.217   3.481   8.946 -0.0198  0.1937  0.1023
18118W        W49334  17.275  12.722   8.058  0.2408  0.0133  0.0514
18119W        W49335   1.746  14.570   9.261 -0.2744  0.1153 -0.1905
18120W        W49336   6.945  25.629   7.829 -0.4735 -0.0537  0.0256
18121W        W49337  16.984   3.679   8.879  0.1500 -0.0726 -0.2481
18122W        W49338  24.962  13.599   8.457  0.5830 -0.1168  0.5016
18123W        W49339  17.229   5.662   8.412 -0.0201 -0.1549  0.0633
18124W        W49340  22.862  14.355   2.151 -0.2138  0.2784 -0.2565
18125W        W49341  16.741  24.268   1.595  0.1851  0.1333 -0.4530
18126W        W49342  12.189   4.100   1.633  0.0308  0.1616 -0.1032
18127W        W49343  21.497  23.632   8.129  0.0763 -0.0945  0.1259
18128W        W49344  11.979  24.940   2.413  0.1012  0.1242  0.0813
18129W        W49345  25.430  17.257   0.575 -0.2099  0.1139 -0.0911
18130W        W49346  21.366  23.748   0.890  0.0342 -0.2796  0.1446
18131W        W49347  16.177  26.652   1.258 -0.1878 -0.1732  0.0597
18132W        W49348  11.570  17.866   2.693  0.1798  0.3699  0.1760
18133W        W49349  24.907  18.885   2.681  0.0034 -0.0738  0.1016
18134W        W49350  19.720  17.427   1.780  0.1945  0.0523 -0.1961
18135W        W49351   4.329  13.169   7.450  0.1117  0.1384  0.3176
18136W        W49352  24.043  20.873   1.716 -0.1474  0.2459  0.0219
18137W        W49353  21.156  26.366   9.371 -0.0122  0.2154  0.2478
18138W        W49354  20.142  21.250   3.053 -0.0055  0.0824 -0.1548
18139W        W49355   4.282  15.171   0.521 -0.3626 -0.1315 -0.0969
18140W        W49356  23.180   1.616   8.830  0.1322  0.0836  0.0306
18141W        W49357  21.639  19.977   9.221 -0.0276  0.2169  0.2261
18142W        W49358  18.043   7.722   1.955  0.0193  0.1191 -0.3028
18143W        W49359   9.946   7.329   9.078 -0.0774 -0.0714  0.0634
18144W        W49360  17.879   6.563   8.816  0.0375 -0.0723  0.0140
18145W        W49361  17.863   7.446   7.595  0.0842  0.1524 -0.2143
18146W        W49362  15.825   7.081   0.763  0.2125 -0.1565  0.2468
18147W        W49363  26.361  16.828   9.541 -0.0297  0.1082  0.1950
18148W        W49364   7.308  15.295   9.496  0.1140 -0.2041 -0.1858
18149W        W49365  15.464  14.239   8.627  0.0988  0.1763  0.1031
18150W        W49366  22.228  18.265   1.550  0.1221  0.0575 -0.0702
18151W        W49367  23.595  14.170   8.196  0.1464  0.0460 -0.0265
18152W        W49368  16.292   5.409   9.314 -0.2619 -0.1085  0.1208
18153W        W49369  20.740   3.389   1.837  0.1635 -0.4616  0.0020
18154W        W49370  14.878  10.981   1.919 -0.0897 -0.1215 -0.2724
18155W        W49371  24.978  25.679   1.690 -0.2270 -0.1331 -0.4027
18156W        W49372  23.626  24.882   9.259 -0.3154  0.0259  0.1822
18157W        W49373  12.839  12.243   1.876 -0.2437 -0.3944  0.2352
18158W        W49374  22.433  23.905   0.610  0.2074  0.1564  0.1327
18159W        W49375  22.788  13.049   9.481 -0.1412 -0.0686 -0.0819
18160W        W49376  17.050  23.455   1.556 -0.0069 -0.0989  0.2005
18161W        W49377  11.442   6.010   1.162  0.1751  0.2194  0.0644
18162W        W49378  24.419  18.767   2.653  0.0056 -0.4228  0.1150
18163W        W49379  15.220   3.223   1.554 -0.2374 -0.0251  0.0392
18164W        W49380  13.655  19.624   1.025 -0.0598 -0.0806 -0.0267
18165W        W49381  22.969  12.960   1.475 -0.1738 -0.2341 -0.1416
18166W        W49382   9.845  23.278  10.303 -0.1600  0.0719 -0.0877
18167W        W49383   3.571   2.630   0.401 -0.0488 -0.2312 -0.5416
18168W        W49384  26.368  17.587  10.047  0.0304 -0.0237  0.2124
18169W        W49385   4.931   6.233   7.585  0.1137 -0.0231  0.1110
18170W        W49386   9.689  10.020   0.556  0.0528  0.0314 -0.0156
18171W        W49387  23.087  21.727   9.348  0.4645 -0.1936  0.4206
18172W        W49388  20.318  15.727   8.820 -0.1068 -0.0924 -0.2368
18173W        W49389   8.974  22.844   3.067 -0.5102 -0.3539 -0.1216
18174W        W49390  23.237   1.644   3.383  0.3709 -0.0146 -0.0862
18175W        W49391   5.050  19.130   3.176  0.3662  0.2227 -0.2733
18176W        W49392  24.070  12.547   0.405 -0.2352 -0.0542 -0.1552
18177W        W49393  24.800  16.177   3.453  0.0480 -0.3126 -0.1939
18178W        W49394   8.901  24.268   1.698 -0.0601 -0.2578 -0.2029
18179W        W49395  18.203   1.893   7.735  0.4250 -0.3180  0.1935
18180W        W49396   3.545  20.108   0.099 -0.1389 -0.0550  0.0904
18181W        W49397  13.860  12.591   9.005  0.0994  0.0512 -0.0679
18182W        W49398  15.924   7.813   2.741 -0.3820  0.0709  0.2633
18183W        W49399  21.836  22.973   0.579  0.0866 -0.0164 -0.1255
18184W        W49400  27.274  15.838   0.182 -0.0967 -0.2070  0.0360
18185W        W49401  16.836  13.506   9.114  0.2737 -0.0974  0.2262
18186W        W49402  11.636  19.323   1.044 -0.0185  0.0858 -0.1105
18187W        W49403  26.008   2.664   3.156  0.0530 -0.1773  0.2325
18188W        W49404   7.258   8.980   1.241  0.2325  0.2897 -0.2327
18189W        W49405   1.471  23.820   1.579 -0.3252  0.1909  0.1920
18190W        W49406   3.996  21.399   7.519  0.0992 -0.1240 -0.3914
18191W        W49407  14.034   8.971   8.238 -0.1482 -0.2539  0.1938
18192W        W49408  22.853  16.784   1.177 -0.0558 -0.0719 -0.4126
18193W        W49409  18.505   9.505   1.526  0.0082  0.0552 -0.1827
18194W        W49410  10.305  15.737   7.634  0.4157 -0.0106  0.1805
18195W        W49411  13.529   7.182  10.185 -0.0970 -0.2562 -0.0660
18196W        W49412  19.707  12.310   7.340  0.1541 -0.1215  0.0515
18197W        W49413   6.893   1.464  10.352  0.1257 -0.1731  0.1013
18198W        W49414  26.037   7.358   1.830 -0.0336  0.1278  0.0552
18199W        W49415  11.342  21.310   9.186 -0.0218 -0.1329 -0.1068
18200W        W49416   1.255   3.726   3.201 -0.0309  0.0721  0.0420
18201W        W49417  24.323  22.149   1.198 -0.5088 -0.2700 -0.0532
18202W        W49418   1.530  14.555   1.669 -0.2514 -0.2244  0.2444
18203W        W49419  18.560  26.747   9.993  0.4136 -0.3004 -0.1682
18204W        W49420   0.112   5.760   0.307  0.1197  0.0941 -0.1103
18205W        W49421  10.548   6.139   9.701 -0.0531  0.3235  0.1398
18206W        W49422  18.486  19.802   1.636  0.0237  0.4405 -0.1017
18207W        W49423   1.258  14.849   8.970  0.0571 -0.2118  0.0022
18208W        W49424  27.259  24.092   2.928 -0.0948  0.1462 -0.0854
18209W        W49425  14.073  15.978   8.115 -0.1034 -0.1409  0.0163
18210W        W49426   2.162  23.801   9.043 -0.3786 -0.3171 -0.0498
18211W        W49427  18.771  12.776   0.930 -0.3222  0.1598 -0.0823
18212W        W49428  23.176  25.949   8.644 -0.1304 -0.2230 -0.0838
18213W        W49429  12.698   0.464   2.106 -0.2325  0.0858 -0.0654
18214W        W49430   7.333   7.918   7.961 -0.2297  0.0867 -0.1432
18215W        W49431   5.456  18.486   1.281  0.2931 -0.0541 -0.0908
18216W        W49432  20.676   3.574   0.014  0.0414  0.3328  0.0243
18217W        W49433   0.383  12.717  10.114 -0.0124  0.2525  0.3344
18218W        W49434   9.081  13.400  10.296  0.2055 -0.0864  0.1371
18219W        W49435   0.478   4.335   0.329 -0.0731  0.1312 -0.2314
18220W        W49436  19.953  20.100   3.487  0.0231 -0.0322  0.2763
18221W        W49437   8.842   2.667   9.052 -0.2400 -0.2730  0.2486
18222W        W49438   8.253   7.429   9.980 -0.1556  0.0590  0.2902
18223W        W49439  25.594   5.305   1.925  0.0416  0.0454  0.3478
18224W        W49440  19.448  18.946   0.414 -0.4970 -0.2249  0.4053
18225W        W49441  16.263   2.543   9.724 -0.0195 -0.1272  0.1638
18226W        W49442  25.342  17.804   1.327 -0.3173  0.1326 -0.0624
18227W        W49443  12.037  26.606   8.090  0.0087  0.0104 -0.0458
18228W        W49444  25.051  22.772   2.123 -0.2509 -0.0160  0.0014
18229W        W49445  26.632   8.408   9.461  0.1766  0.0097 -0.1349
18230W        W49446   8.455   8.280   7.579 -0.0634 -0.1779 -0.3076
18231W        W49447   7.146   4.777   0.963 -0.0620 -0.1236 -0.0444
18232W        W49448   8.389   1.841   2.233 -0.1582  0.2175 -0.1749
18233W        W49449   7.470  19.842  10.003  0.2115 -0.3402 -0.0698
18234W        W49450  25.852   5.405   0.786 -0.0212 -0.1681 -0.3573
18235W        W49451   2.989  18.307   1.455  0.3120  0.1340  0.1298
18236W        W49452  15.255  23.550   3.140 -0.2949 -0.1403  0.0923
18237W        W49453   2.452   0.397   8.666 -0.3729  0.0251  0.2049
18238W        W49454   5.243  16.000   7.523 -0.1227 -0.0522  0.2544
18239W        W49455  26.222   2.382   1.197 -0.2125  0.0558 -0.0325
18240W        W49456  11.987   8.437   0.077 -0.1047  0.1354 -0.2066
18241W        W49457   0.407  12.086   1.793 -0.3314  0.0130  0.1001
18242W        W49458  26.793   7.820   8.920  0.1796  0.0292 -0.1122
18243W        W49459  23.869   5.242   8.787  0.1235  0.0476  0.2888
18244W        W49460   7.996  27.069   8.708  0.1934  0.0278 -0.1665
18245W        W49461   3.513   2.118   9.827  0.2541 -0.1138  0.4781
18246W        W49462   0.403   0.381   9.874 -0.0011 -0.1957  0.2035
18247W        W49463  26.180  23.634  10.463 -0.0299 -0.1984 -0.0743
18248W        W49464  25.989  23.385   8.120 -0.1166  0.0510  0.1134
18249W        W49465  26.986  17.145   8.262  0.0999  0.1360  0.3028
18250W        W49466  16.498  17.648   3.054 -0.1030 -0.4541 -0.0175
18251W        W49467  26.878  14.655   8.581  0.2131 -0.0539 -0.0966
18252W        W49468   0.441  11.417   1.386  0.4341 -0.0359 -0.0420
18253W        W49469   0.312  23.599   0.710 -0.1037  0.3165  0.0080
18254W        W49470   2.460  21.758   3.421  0.1751 -0.2755  0.3515
18255W        W49471  19.400  20.532   3.013 -0.2698 -0.3140  0.2202
18256W        W49472  12.039  26.160   9.306 -0.1133  0.0017  0.2923
18257W        W49473  15.727  15.168  10.041  0.1490  0.1442  0.0099
18258W        W49474  27.341  13.112   2.424  0.1795  0.2709 -0.1490
18259W        W49475  23.913   3.550   9.386 -0.0367  0.0178 -0.1389
18260W        W49476  18.007   0.440   9.201 -0.1196  0.1235  0.2296
18261W        W49477   2.177   4.184   8.821 -0.3689 -0.0780  0.0314
18262W        W49478   8.301   0.623   9.649 -0.0117 -0.2520  0.0633
18263W        W49479   3.879   3.587   8.195  0.2776 -0.2064  0.1072
18264W        W49480  25.858  20.859   7.773 -0.0406 -0.1444  0.0658
18265W        W49481  19.577  24.014   0.889 -0.0048 -0.0104 -0.1298
18266W        W49482  17.707  11.133   9.736 -0.4313 -0.1480  0.1701
18267W        W49483   1.450  16.884   3.731 -0.2480  0.1476 -0.1981
18268W        W49484  25.372  11.551   2.039 -0.2016 -0.1110  0.1016
18269W        W49485   7.895  21.514   1.182  0.2575 -0.4410 -0.0012
18270W        W49486   5.812   5.185   9.600  0.0441 -0.0740  0.0715
18271W        W49487  23.095   7.666   3.162  0.2098 -0.2177  0.1729
18272W        W49488  23.731  23.996   2.960  0.1736 -0.3208 -0.3119
18273W        W49489  10.633  19.434   8.127 -0.3256 -0.0920  0.1972
18274W        W49490  21.798  18.107   1.158 -0.0864  0.4964  0.0906
18275W        W49491  11.228  25.771  10.443 -0.2044  0.0570  0.1959
18276W        W49492  20.880  18.129   0.535 -0.0715  0.0130  0.1775
18277W        W49493  17.233  22.658   3.245 -0.1029  0.0375 -0.1792
18278W        W49494  18.881   5.138   8.236 -0.2353 -0.0785  0.1090
18279W        W49495   4.852  13.077   0.712 -0.1860 -0.0978  0.3225
18280W        W49496  14.634  21.478  10.537 -0.0044  0.0919 -0.1023
18281W        W49497   8.569  26.722   1.719  0.0012 -0.0695  0.2192
18282W        W49498  15.717   6.011   6.965  0.2065  0.1946  0.1453
18283W        W49499   2.113  12.416   9.922  0.0876  0.0236 -0.0140
18284W        W49500   7.437  11.969  10.127 -0.1479 -0.0753  0.3448
18285W        W49501  24.878  13.059   3.010 -0.1126 -0.0503  0.1806
18286W        W49502   8.636  24.736  10.249 -0.0181 -0.0789  0.0588
18287W        W49503  20.893  13.424   8.632  0.0310 -0.3217  0.1398
18288W        W49504   2.862  22.026   1.019 -0.0927 -0.3107  0.1701
18289W        W49505   5.049  22.785   9.477  0.0742 -0.1645  0.2112
18290W        W49506   6.625   5.239   1.774 -0.1301  0.1310  0.0493
18291W        W49507   9.798  19.470   9.440  0.1790 -0.0424 -0.2065
18292W        W49508  23.273  26.456   9.283 -0.0002 -0.0383 -0.0164
18293W        W49509   3.829   0.600   0.212  0.0824 -0.1325  0.3110
18294W        W49510  26.200  16.721   0.732 -0.1891 -0.2445  0.1784
18295W        W49511  11.185  20.203   1.157 -0.2126  0.1075 -0.2335
18296W        W49512  10.772   2.813   0.920  0.1276  0.0664  0.0574
18297W        W49513  19.338  19.331   1.895 -0.6088 -0.1551  0.2025
18298W        W49514  10.425  16.971   9.065  0.0671 -0.2839 -0.0121
18299W        W49515  22.680  19.394   9.289 -0.0363  0.1248 -0.1285
18300W        W49516  19.204   3.981   2.957  0.0343  0.0180  0.0941
18301W        W49517  10.709   6.241   9.004  0.0970  0.0173  0.3403
18302W        W49518  12.692  26.724   1.824  0.1212 -0.0015  0.0434
18303W        W49519   9.550  23.039   0.132  0.1747 -0.3072 -0.2517
18304W        W49520  15.584  13.060   2.395 -0.1487  0.3526 -0.1061
18305W        W49521  16.397   1.621   1.477  0.1968  0.1377 -0.1408
18306W        W49522   8.799   5.385   9.547  0.0870  0.0374  0.2997
18307W        W49523  24.201  24.613   0.308 -0.2483  0.1118 -0.0275
18308W        W49524   7.423  19.410   0.289 -0.0660 -0.0372 -0.0529
18309W        W49525  11.173  18.396   9.207  0.0416 -0.0194 -0.2025
18310W        W49526  18.524   8.536   0.139 -0.2242 -0.1939 -0.0393
18311W        W49527   5.727  11.586   8.124  0.0821  0.0867 -0.1633
18312W        W49528  18.013  18.388   9.664 -0.3965  0.1929  0.2926
18313W        W49529   0.714   7.698   9.920  0.3364 -0.4065  0.1698
18314W        W49530   4.295  10.989   8.823 -0.0298 -0.3282 -0.1027
18315W        W49531  26.452   3.606   9.023 -0.3629 -0.0970  0.0696
18316W        W49532  14.559   6.828   9.443 -0.4773 -0.1956 -0.0191
18317W        W49533  23.258   5.670  10.016  0.2039 -0.1097 -0.1585
18318W        W49534   7.353   8.039  10.351 -0.1389 -0.2014 -0.1581
18319W        W49535  26.714  11.858   3.064 -0.2401 -0.0009 -0.0990
18320W        W49536  17.715   9.165   8.556 -0.1316 -0.1615  0.0400
18321W        W49537  13.114  12.172   2.300  0.0141  0.0241 -0.0325
18322W        W49538   8.240  11.624   9.392 -0.0368 -0.1219 -0.0647
18323W        W49539  10.750  20.502   9.549  0.0733 -0.0566  0.2081
18324W        W49540  21.446   5.328   7.580 -0.0064  0.2126 -0.3962
18325W        W49541   7.273   1.803  10.352  0.0783  0.3424  0.2079
18326W        W49542   4.193  18.348   3.659  0.4652 -0.3494 -0.1587
18327W        W49543   4.661  27.442   1.722  0.0004 -0.0107  0.1691
18328W        W49544  25.997  15.587   2.224  0.1919 -0.0452 -0.0082
18329W        W49545  18.600   5.876   9.962 -0.1935 -0.0651 -0.0083
18330W        W49546   2.343   8.268   9.074 -0.2457 -0.0930  0.0108
18331W        W49547  22.966  11.276   9.610  0.0782 -0.1328  0.1197
18332W        W49548   7.785  13.864   1.776  0.1404  0.0984  0.0949
18333W        W49549  16.103   4.721   9.423 -0.1273  0.0227 -0.1900
18334W        W49550  14.597  11.819   0.566 -0.0469  0.0097 -0.1283
18335W        W49551  26.685  27.603   0.054 -0.2086  0.0696 -0.4345
18336W        W49552   4.667   4.037   3.062  0.0031 -0.1516  0.3621
18337W        W49553  11.458   5.179   2.320 -0.1772  0.0506  0.0853
18338W        W49554   5.247  16.505   0.261  0.1320  0.1989  0.2854
18339W        W49555  24.772  14.746   1.344 -0.1426 -0.0981 -0.0407
18340W        W49556   9.681   1.942   3.117  0.0037  0.4020  0.0113
18341W        W49557  10.406  24.847   8.141  0.2524 -0.0075 -0.0467
18342W        W49558  25.021  22.524   0.660 -0.0890  0.1428  0.1860
18343W        W49559   2.811   0.411   1.339 -0.0452  0.2835 -0.3380
18344W        W49560  13.449  15.054   0.608  0.0165  0.1160 -0.1104
18345W        W49561  18.405  21.631   1.544  0.1387 -0.0537 -0.0990
18346W        W49562   3.174  21.455   3.190  0.1096 -0.1251 -0.2083
18347W        W49563  16.052  21.411   1.261 -0.3680 -0.0096 -0.1348
18348W        W49564  21.491  20.418   1.864  0.1341 -0.1405 -0.0339
18349W        W49565   3.164  20.960   7.808 -0.1485  0.1160  0.1984
18350W        W49566   5.100  23.664  10.073  0.0208 -0.2026  0.1895
18351W        W49567   5.380  23.833   3.055  0.2093 -0.1729  0.0792
18352W        W49568  23.566  17.403   8.288  0.1108  0.4637 -0.1366
18353W        W49569   4.434  19.189   1.303 -0.1829 -0.1993  0.0609
18354W        W49570   1.528  23.266  10.141  0.2593 -0.0720  0.1319
18355W        W49571  16.249  25.456   9.435 -0.3019  0.3047 -0.1485
18356W        W49572  14.002  14.852   8.975 -0.0823 -0.2726 -0.1775
18357W        W49573   2.821  12.745   1.936  0.1479 -0.1685 -0.1618
18358W        W49574  16.560  14.222   1.625  0.0021  0.0296  0.3145
18359W        W49575  16.501  10.437   1.640 -0.2951  0.2975  0.3993
18360W        W49576  19.063  16.810   0.462  0.1173 -0.0542  0.1860
18361W        W49577   1.249  19.930   0.968 -0.1737 -0.1767  0.1121
18362W        W49578   8.875   4.524   9.564  0.0430 -0.3779 -0.1407
18363W        W49579  22.734   3.470  10.319  0.1172  0.0718  0.0128
18364W        W49580  23.307  18.885   2.357  0.1654  0.1593  0.1615
18365W        W49581  27.415   8.319  10.075 -0.3614 -0.0582 -0.3716
18366W        W49582  14.218  15.083   2.118 -0.0207 -0.1451 -0.1381
18367W        W49583   1.963  23.004   9.397  0.0552  0.1789  0.3068
18368W        W49584   1.141  13.408   8.608 -0.1370 -0.2452  0.0418
18369W        W49585  23.858  18.822   2.475 -0.0920  0.0320  0.0333
18370W        W49586   7.480   2.517  10.430 -0.0241 -0.0550  0.1099
18371W        W49587  17.664   3.629   3.162 -0.0721  0.3323  0.0378
18372W        W49588  27.384   9.627   0.070 -0.3627  0.0920  0.1869
18373W        W49589  17.885  23.709   0.281  0.1213 -0.0781  0.1191
18374W        W49590   6.969  20.233   2.176 -0.4051 -0.2380  0.1476
18375W        W49591  10.521  15.269   3.604 -0.1915 -0.1261 -0.0406
18376W        W49592   6.199  21.346  10.335  0.1265 -0.4320 -0.0686
18377W        W49593  24.233   3.964   8.442  0.1977  0.1247 -0.1700
18378W        W49594  14.895  23.273   2.300 -0.1543  0.0515 -0.0369
18379W        W49595  14.320   4.907   9.970  0.2240 -0.1619  0.0578
18380W        W49596  23.849   1.640   2.596  0.0766  0.2190 -0.0865
18381W        W49597   8.753  19.419   8.853 -0.0429  0.0393 -0.0094
18382W        W49598  15.879  23.860   9.198 -0.0200 -0.0685 -0.3188
18383W        W49599  18.600  22.892   9.152 -0.0069  0.0869 -0.1001
18384W        W49600  10.706   7.122   2.580 -0.2560 -0.3175  0.1330
18385W        W49601   5.175  15.728   9.608 -0.2747  0.2332 -0.1275
18386W        W49602  24.869   4.074   3.372  0.0673 -0.2825 -0.2350
18387W        W49603   9.190   1.350   8.854  0.0325  0.1421  0.1943
18388W        W49604   9.581  22.096   2.998  0.0752 -0.1244  0.5119
18389W        W49605  23.336   0.430   0.853 -0.3220 -0.0601  0.3307
18390W        W49606   2.200  21.951   1.570  0.0033 -0.3091 -0.0168
18391W        W49607  22.603  24.863  10.162  0.0282  0.0518 -0.2459
18392W        W49608  13.149  12.027   7.917 -0.0573 -0.0517 -0.2804
18393W        W49609  24.061  18.792   9.207 -0.0981 -0.0902 -0.0849
18394W        W49610  26.792  18.850   2.552  0.2888 -0.0241 -0.0925
18395W        W49611  15.884  17.412   1.762  0.2892 -0.0166 -0.1193
18396W        W49612   8.331  18.519   7.355  0.0273  0.1120  0.0568
18397W        W49613  25.226  23.317   9.079 -0.0622  0.0160 -0.0323
18398W        W49614  19.450  23.896   9.171  0.0925 -0.2272 -0.3354
18399W        W49615   6.098   9.563   7.941 -0.0255 -0.4045 -0.0728
18400W        W49616  26.958  19.622   2.336  0.0373 -0.1390  0.1304
18401W        W49617  16.457  16.873   0.178 -0.2179 -0.2623  0.2710
18402W        W49618  26.570   0.987   3.231 -0.0571  0.1240 -0.0141
18403W        W49619   2.404   5.880   9.488  0.0959  0.0946  0.3166
18404W        W49620   5.204  14.880   9.756 -0.0806 -0.1937 -0.0065
18405W        W49621  14.743  14.689  10.468 -0.3329  0.1690 -0.1358
18406W        W49622   9.220   4.738  10.405  0.3394 -0.3387 -0.2283
18407W        W49623  22.671   7.075   9.165 -0.1434 -0.0279 -0.3505
18408W        W49624   0.349   2.672   2.847  0.2575  0.1861  0.0984
18409W        W49625  24.789   2.197   9.459  0.0604 -0.4068 -0.1914
18410W        W49626  25.871   7.018   0.228  0.2163 -0.0354 -0.2180
18411W        W49627  15.227   5.022   3.472  0.0701 -0.0524  0.1518
18412W        W49628  22.506  15.814   2.326  0.0273  0.1552  0.1440
18413W        W49629  26.238   5.720   4.070 -0.1796 -0.5993  0.0740
18414W        W49630   3.447  13.979   0.471  0.0883 -0.1642  0.1021
18415W        W49631   5.542  17.521   0.219 -0.1407  0.1229  0.0011
18416W        W49632  22.171  21.600   1.009 -0.3303 -0.0697  0.0019
18417W        W49633   2.108   3.270   9.666 -0.1276 -0.1401 -0.2746
18418W        W49634   6.899  12.746   9.420  0.0402 -0.2330 -0.2358
18419W        W49635  12.302  18.332   1.422 -0.0843 -0.1765 -0.3970
18420W        W49636  22.854  27.444  10.425  0.1899 -0.0129 -0.0062
18421W        W49637  18.754  10.685   2.901  0.2034 -0.0170 -0.2003
18422W        W49638  19.658  25.878   0.670  0.0785  0.1500  0.1204
18423W        W49639  14.239  25.186   8.800 -0.2247  0.0012  0.1644
18424W        W49640   8.978   1.959   8.265  0.0223 -0.0567  0.2970
18425W        W49641   3.302  17.633   8.953 -0.1291 -0.0175 -0.0441
18426W        W49642   5.757   2.652  10.407 -0.0539 -0.2695 -0.1356
18427W        W49643  14.857  22.262   7.372 -0.0583  0.2937 -0.4087
18428W        W49644  25.819  14.160   4.315 -0.0013  0.1181  0.2225
18429W        W49645  10.008  22.093   1.034  0.1332 -0.1169  0.4120
18430W        W49646  12.710  20.642   1.979  0.2703 -0.1390 -0.0165
18431W        W49647  25.124  13.012   7.467 -0.3881  0.1918 -0.1718
18432W        W49648   8.248  20.536   9.359 -0.2284 -0.2262 -0.0108
18433W        W49649   2.863  27.333   3.467  0.0544 -0.1509 -0.1534
18434W        W49650   8.345  26.967   7.940 -0.3976  0.3870 -0.4268
18435W        W49651   0.027  19.118   2.660 -0.0696  0.1164 -0.0590
18436W        W49652   7.603  17.363   0.934  0.1427 -0.0192  0.3064
18437W        W49653   7.895  27.611   8.801  0.2394  0.2738 -0.0281
18438W        W49654  10.079  25.173   7.977  0.0628  0.0031 -0.1999
18439W        W49655   6.453  12.313   8.797 -0.0463 -0.1765 -0.1547
18440W        W49656  12.778  16.818   9.169  0.1873 -0.0315 -0.1042
18441W        W49657   6.046   1.428  10.154 -0.1652  0.0541 -0.1558
18442W        W49658  23.897  24.245  10.084  0.0808  0.0472 -0.0643
18443W        W49659   1.846  17.592   7.539 -0.2753 -0.1379  0.0235
18444W        W49660   8.499  12.633   0.287  0.0341  0.1061 -0.0756
18445W        W49661  13.139   3.260   1.140  0.1277 -0.3383  0.0911
18446W        W49662   2.044  23.110   0.655  0.2971 -0.0090  0.0140
18447W        W49663  13.828   9.540   2.108 -0.0353 -0.1101  0.1082
18448W        W49664   4.983  20.769   3.246  0.0108  0.1075  0.4367
18449W        W49665  10.194  23.575   2.032  0.1285 -0.3895 -0.0055
18450W        W49666   2.374  14.128   2.275 -0.0225 -0.2125 -0.0702
18451W        W49667  13.652  18.376   8.905  0.0019  0.0499 -0.1174
18452W        W49668   0.621  15.497   8.466  0.0944 -0.0946  0.2167
18453W        W49669   3.588  23.462   1.797 -0.0573  0.1337  0.0949
18454W        W49670  13.457  18.113   3.562  0.1796 -0.0043 -0.0315
18455W        W49671  11.715   3.506   8.630 -0.0656  0.1113  0.0260
18456W        W49672   4.596   7.321   6.959  0.0050  0.2189  0.3274
18457W        W49673   6.206  23.304   0.833  0.0160  0.5580  0.1878
18458W        W49674   4.583  11.542   3.294  0.4448  0.0165 -0.0257
18459W        W49675   7.484  24.711   0.975  0.0385 -0.0286 -0.0388
18460W        W49676   8.142   8.489   0.175  0.1971  0.0302  0.0178
18461W        W49677  13.688   6.883   9.230  0.0424 -0.1666  0.0863
18462W        W49678  11.198  14.097   8.677 -0.0409  0.3671 -0.0506
18463W        W49679  14.498  20.328   2.344 -0.0760  0.1660  0.2095
18464W        W49680  19.137  23.885   0.825 -0.4035  0.1601  0.0978
18465W        W49681  12.811  24.276   0.506 -0.3987  0.0312 -0.1594
18466W        W49682  24.777  20.855   9.853 -0.1272  0.1660  0.2990
18467W        W49683  25.645  10.917   3.344  0.3003 -0.2454  0.0224
18468W        W49684   7.198  17.815   8.330  0.2952  0.0480  0.1533
18469W        W49685  21.312   9.643   1.791  0.0305 -0.0391 -0.0161
18470W        W49686   6.045  23.431   9.676  0.2385  0.0447 -0.1233
18471W        W49687  18.721  17.360   2.124 -0.3180  0.0245 -0.1093
18472W        W49688   7.495  12.760   2.531 -0.2533  0.0103 -0.0311
18473W        W49689   7.631   9.073   9.513  0.0818  0.0287 -0.3194
18474W        W49690  21.529  10.197   2.010 -0.2321 -0.1632 -0.2441
18475W        W49691  14.968  22.914   1.920 -0.0250 -0.1155 -0.0777
18476W        W49692  10.622   3.040  10.335  0.1093 -0.0277 -0.0499
18477W        W49693  21.245  25.673   7.148 -0.1581 -0.0408  0.5486
18478W        W49694   1.400  20.054   2.110  0.0153  0.3901  0.1157
18479W        W49695  14.672  25.778   9.509 -0.0641  0.1504  0.1643
18480W        W49696  25.104  14.865   1.854  0.0116 -0.1619 -0.1068
18481W        W49697  23.750  22.282   0.368 -0.1248 -0.0420  0.0928
18482W        W49698  21.442   7.351   8.650  0.1321  0.2788 -0.0376
18483W        W49699  13.812  25.905   8.962 -0.0808 -0.0028 -0.1208
18484W        W49700   0.003  27.274   2.353  0.2555  0.0478 -0.2383
18485W        W49701  16.185  22.864  10.483  0.0898  0.1118  0.0021
18486W        W49702  16.006   5.891   8.565  0.0034 -0.1417 -0.0321
18487W        W49703   4.115  21.900   0.541  0.1492 -0.1133 -0.0230
18488W        W49704  16.571   4.294   8.719  0.0208  0.0543 -0.0858
18489W        W49705   7.599  10.939  10.232  0.0108 -0.1968 -0.1246
18490W        W49706  14.986  23.382   0.813  0.1917 -0.0222  0.1764
18491W        W49707   6.263  18.882   7.906 -0.1007  0.5754 -0.2442
18492W        W49708   8.328  10.492   7.695  0.1719 -0.2776  0.0551
18493W        W49709   9.509   4.923   1.006  0.2562 -0.0155 -0.1195
18494W        W49710   1.641  24.147   7.902 -0.0055 -0.2193 -0.2510
18495W        W49711   1.242   0.004   1.620  0.1559  0.4330  0.0698
18496W        W49712   5.758  21.891   1.524  0.1891 -0.0367 -0.1223
18497W        W49713   9.586  26.789  10.290  0.3006  0.0625 -0.3457
18498W        W49714  17.354  17.235   9.409  0.0727 -0.0464  0.1004
18499W        W49715   6.106  26.137   0.145  0.0003 -0.1780 -0.0857
18500W        W49716   9.084  19.745   9.003  0.1336 -0.0436  0.1665
18501W        W49717   9.366  21.686   1.502 -0.2165 -0.0913  0.3005
18502W        W49718  25.165   1.031   7.306  0.1784 -0.0142 -0.0569
18503W        W49719   7.148  25.933   2.169 -0.1286 -0.1576 -0.4114
18504W        W49720  21.943  10.149   0.572 -0.0892 -0.2372  0.0738
18505W        W49721   2.298  10.994   1.169  0.0526 -0.1789 -0.3872
18506W        W49722  21.970  18.368   2.341  0.1986 -0.2375  0.0668
18507W        W49723  11.522  25.454   1.921  0.3369 -0.5589 -0.0075
18508W        W49724  16.863   7.287   1.886 -0.1156 -0.1105  0.2455
18509W        W49725  21.268   8.999   2.918 -0.4186 -0.0493 -0.0357
18510W        W49726   6.628  23.652   9.533 -0.4759  0.4076 -0.3082
18511W        W49727  18.132  16.742  10.000  0.0855  0.3320 -0.2014
18512W        W49728   0.793   3.846   0.092  0.0200  0.0231 -0.2301
18513W        W49729  25.997   0.735   8.039  0.3781  0.0126 -0.0619
18514W        W49730  14.627  16.817   3.009 -0.0211  0.2436  0.2661
18515W        W49731   3.334  11.017   2.859 -0.1881 -0.0598 -0.1206
18516W        W49732  16.203  16.762   4.132  0.0937  0.0883 -0.0225
18517W        W49733  20.552   5.961  10.429  0.2258 -0.4751 -0.0299
18518W        W49734  14.506  24.784   2.072 -0.2457  0.0137  0.1033
18519W        W49735   7.227   0.456   3.202  0.0337 -0.1456 -0.3405
18520W        W49736  11.158  10.289  10.342 -0.1466  0.0517 -0.3279
18521W        W49737  26.004  22.947   8.899 -0.0236 -0.3355  0.0246
18522W        W49738  21.907  25.425   2.979 -0.1099  0.3466 -0.0800
18523W        W49739  24.511   9.084   2.515  0.0895  0.3506  0.2557
18524W        W49740   7.889  20.239   9.570 -0.2208  0.1071  0.1236
18525W        W49741  23.918   8.468   8.892 -0.1323 -0.0174 -0.3365
18526W        W49742  18.442   4.929   0.432  0.1115 -0.0257 -0.2277
18527W        W49743  13.249   3.858   7.504  0.0643  0.2449  0.0052
18528W        W49744   7.880  20.247   2.238  0.0833 -0.1209 -0.1818
18529W        W49745  10.773  17.223   2.059 -0.1756 -0.3533  0.0344
18530W        W49746  21.280  18.188   7.984  0.0323 -0.1176 -0.0663
18531W        W49747  23.462  18.384   2.611  0.1386 -0.0804  0.1417
18532W        W49748   3.767   1.459   1.670 -0.0397  0.1939  0.1109
18533W        W49749   9.686   9.446   0.671 -0.1427 -0.2077  0.0366
18534W        W49750   1.590   3.642   8.969 -0.0844  0.0779  0.0704
18535W        W49751   0.484   9.017   2.890 -0.0510  0.0453 -0.1594
18536W        W49752  14.591   3.473   2.944  0.1681 -0.1594 -0.4030
18537W        W49753  20.171  11.551   7.421  0.2090 -0.0078 -0.1507
18538W        W49754   5.478  19.412   8.880  0.0354  0.0231  0.0633
18539W        W49755  21.252  12.225   3.407 -0.0946  0.5626 -0.1121
18540W        W49756  22.577  21.929   1.752  0.0875 -0.1277 -0.3737
18541W        W49757  21.441   0.921  10.246 -0.0595  0.0730  0.0268
18542W        W49758  20.512  19.581  10.363 -0.1186  0.0585 -0.0351
18543W        W49759   4.982  22.546   1.255  0.0888  0.0492 -0.0004
18544W        W49760   4.939  23.398   8.640  0.1408 -0.0822 -0.0190
18545W        W49761  13.984   1.729   2.248 -0.0919  0.2120  0.4595
18546W        W49762  17.927  11.549   8.255  0.2315 -0.0897  0.3863
18547W        W49763  25.277   7.368   8.606 -0.1380 -0.0026 -0.0024
18548W        W49764  21.444  24.161   8.951 -0.0871 -0.2835 -0.2100
18549W        W49765  12.714  24.868   9.201  0.0076 -0.0722  0.0055
18550W        W49766  11.716   7.026   9.507  0.1202  0.2726 -0.1589
18551W        W49767  15.984  16.295   7.827 -0.1768  0.0500  0.1527
18552W        W49768  23.052  14.739   9.010 -0.3788 -0.0991 -0.0798
18553W        W49769  23.779   5.486   3.606 -0.1061 -0.2537  0.3412
18554W        W49770   6.637  27.200   2.573  0.1958  0.0450 -0.0569
18555W        W49771   0.135  17.904   2.864  0.1041  0.3090 -0.0097
18556W        W49772  23.348  16.386  10.488 -0.2402 -0.2131 -0.0339
18557W        W49773   9.201  23.532   0.053  0.1446 -0.1547 -0.1523
18558W        W49774  26.563  17.432   9.482 -0.3360  0.1918 -0.0604
18559W        W49775  25.208  12.548   3.555  0.2918  0.1374  0.1811
18560W        W49776   9.530   6.604   7.629  0.3438 -0.1658 -0.0203
18561W        W49777   2.138   7.806   2.771 -0.0852  0.1794 -0.0538
18562W        W49778  18.932  20.689   1.949  0.1058  0.2577  0.0337
18563W        W49779  21.057   1.453   2.393 -0.0003  0.0971 -0.1014
18564W        W49780  27.167  10.563   9.740 -0.0643  0.1548  0.0080
18565W        W49781  24.444   5.466   2.714  0.1066  0.2147 -0.3008
18566W        W49782  25.043   5.669   9.022 -0.0379 -0.0995  0.2152
18567W        W49783  10.819  26.660   3.422  0.1021 -0.1454 -0.0386
18568W        W49784   4.738  26.033   9.206 -0.1342 -0.1974  0.4674
18569W        W49785   4.573   0.822   3.450 -0.3772 -0.0525 -0.2081
18570W        W49786   0.763  20.207   9.806  0.0268  0.1553  0.0972
18571W        W49787  24.024  16.381  10.483 -0.1251 -0.1560 -0.2483
18572W        W49788  16.198  27.188  10.173  0.0762  0.1707 -0.1424
18573W        W49789  23.686  23.812   8.996 -0.3015  0.1738 -0.3756
18574W        W49790  17.897  15.702   8.291 -0.2573 -0.0575 -0.1684
18575W        W49791  17.043   7.181   3.058 -0.0480 -0.0071  0.1435
18576W        W49792  17.024  19.875   1.192 -0.1817 -0.2420 -0.0902
18577W        W49793  20.693   8.693   6.876  0.1314  0.0191  0.1921
18578W        W49794  25.734  20.223   2.571 -0.3693  0.1745 -0.3689
18579W        W49795  18.750  14.107   7.370 -0.1376  0.2308  0.0374
18580W        W49796   8.061  15.681   9.202 -0.1560 -0.4255  0.1412
18581W        W49797  19.554  24.177   8.759  0.0050 -0.0560 -0.0432
18582W        W49798  15.589  21.339  10.359 -0.1157  0.1863 -0.0868
18583W        W49799  19.894  26.438  10.332  0.1401  0.0681  0.1401
18584W        W49800   0.970  23.938   8.769 -0.3044  0.1680  0.3863
18585W        W49801   6.844  21.549   1.229  0.0203 -0.0060 -0.1279
18586W        W49802  17.200   3.401   8.374  0.1568  0.0432  0.0844
18587W        W49803  13.940   5.854   2.133  0.0366 -0.1793  0.4908
18588W        W49804   7.840   4.364   1.275 -0.2835 -0.0893 -0.2701
18589W        W49805   0.457  14.970   0.418 -0.4571  0.0463  0.0778
18590W        W49806  12.454  10.085   3.201  0.0883 -0.0197  0.1039
18591W        W49807  17.741  17.933   2.168 -0.1380  0.0683  0.0712
18592W        W49808   9.177   7.049   7.669 -0.1422 -0.1554  0.0348
18593W        W49809   2.872  26.383   2.498 -0.0958  0.3120 -0.2519
18594W        W49810  25.336  22.498   8.234  0.1739  0.0756  0.1243
18595W        W49811  27.024  23.838  10.446 -0.1378 -0.1224  0.1106
18596W        W49812   8.156  17.285   9.180  0.1147  0.1374  0.1091
18597W        W49813  21.929  26.208   7.871 -0.0056  0.0362 -0.0918
18598W        W49814  24.335  13.287  10.186 -0.0501  0.2366 -0.0916
18599W        W49815  25.526  22.644   0.405 -0.1366  0.0292  0.2866
18600W        W49816  17.834   6.616   1.681 -0.2045 -0.0600  0.0190
18601W        W49817  24.913  11.634   7.847 -0.4803 -0.0630  0.1354
18602W        W49818   3.985   0.849  10.339 -0.0563 -0.2310  0.0119
18603W        W49819   7.024  15.614   0.291  0.3945 -0.4250 -0.3305
18604W        W49820   2.695  24.724   9.777 -0.0853 -0.1727  0.1247
18605W        W49821  12.435  10.389   8.806  0.2184 -0.3035 -0.0480
18606W        W49822  23.812  18.200   1.199  0.2108  0.0187  0.1178
18607W        W49823  22.983   9.171   2.177 -0.3642 -0.2914 -0.0058
18608W        W49824   9.487  16.649   1.461  0.2327  0.0243  0.3775
18609W        W49825  21.182   2.758   9.303 -0.0074 -0.2309 -0.0494
18610W        W49826  12.680  25.986   3.378 -0.1796  0.0987 -0.1144
18611W        W49827  19.178   3.182   0.012 -0.0813 -0.1146  0.0146
18612W        W49828   3.064  13.557   2.175 -0.0266  0.3458  0.2690
18613W        W49829  16.132  23.764   1.415  0.0043 -0.0934 -0.1468
18614W        W49830   6.740  25.036   1.802 -0.1439 -0.0799  0.0840
18615W        W49831  17.597   4.802   8.143  0.2180 -0.0904  0.0601
18616W        W49832  10.102  16.356   1.603  0.0074  0.2083 -0.0542
18617W        W49833   3.102  26.734   3.710  0.1051 -0.0625 -0.1940
18618W        W49834  26.651   8.159   9.917  0.0832  0.0624 -0.1693
18619W        W49835  17.037  19.675   7.776  0.2113  0.0434  0.0434
18620W        W49836   2.471   0.400   2.770  0.0055  0.3332 -0.2268
18621W        W49837  17.145  26.965   8.614 -0.3590  0.2217  0.1506
18622W        W49838  23.168  11.250   1.541 -0.0381  0.2055  0.1274
18623W        W49839  17.434  19.756   7.471  0.0558 -0.1664  0.2354
18624W        W49840   1.658   7.371   8.021 -0.3540  0.1034  0.1846
18625W        W49841  26.002  16.277   0.916 -0.2443  0.0104  0.1823
18626W        W49842   7.679  15.816   1.912 -0.4880 -0.1473  0.0782
18627W        W49843   2.527  12.511   9.515 -0.2247 -0.1337  0.0905
18628W        W49844   0.411  18.385   1.341  0.0547 -0.1182  0.0635
18629W        W49845   8.049  14.497   8.086 -0.0676  0.4210  0.0660
18630W        W49846   8.560  11.051   8.739  0.2785 -0.0805 -0.0607
18631W        W49847  26.827  15.935   9.749 -0.0084 -0.0423  0.2313
18632W        W49848  10.998  13.223   7.015  0.0745 -0.2401  0.0623
18633W        W49849  18.745   6.557   0.313  0.0534  0.2330 -0.2708
18634W        W49850   2.196  24.337   7.878  0.1421 -0.1202  0.1766
18635W        W49851  17.350  15.039   0.295 -0.0906  0.0933  0.2646
18636W        W49852  14.949   4.039  10.327 -0.1077 -0.2228  0.1697
18637W        W49853  15.254  23.542   7.667 -0.0939 -0.0476 -0.1297
18638W        W49854   0.304  19.127   3.063  0.1403 -0.1389 -0.2043
18639W        W49855  17.615   8.479   9.930  0.2758  0.3258  0.1431
18640W        W49856   4.964  23.717   1.590 -0.1033  0.1876  0.1605
18641W        W49857  27.194  14.497   1.119  0.1434 -0.0004  0.4862
18642W        W49858   4.669  16.033   8.153 -0.0358 -0.1502  0.0187
18643W        W49859   4.075  27.487   0.097  0.1197 -0.0993  0.0081
18644W        W49860   7.526  26.567   1.981  0.1970 -0.0000 -0.0072
18645W        W49861  11.034  27.316  10.226  0.0214 -0.1967 -0.1645
18646W        W49862  15.452  20.225   8.730  0.0985 -0.0315  0.1938
18647W        W49863   1.889  14.660   1.225 -0.1126  0.2039 -0.0612
18648W        W49864  12.061  10.906   3.571  0.3489 -0.4198 -0.0844
18649W        W49865   8.109  13.399   8.958  0.1830 -0.2040  0.2999
18650W        W49866  19.040  24.166   9.074 -0.1359 -0.3642  0.0217
18651W        W49867   1.923  24.749  10.332  0.3370 -0.1770 -0.2626
18652W        W49868   9.044  26.447   9.621 -0.1234  0.3200  0.2332
18653W        W49869  22.792  21.743   3.467  0.0402 -0.0161  0.2295
18654W        W49870   3.685  12.736   1.556 -0.0202  0.2612 -0.2244
18655W        W49871   7.452  27.056  10.492 -0.2787  0.1099 -0.1080
18656W        W49872   4.812  23.036   2.416 -0.0348 -0.0039 -0.0214
18657W        W49873   1.617   5.988   1.269  0.1741 -0.0080 -0.0521
18658W        W49874  23.702   8.104   7.910  0.0612  0.2095  0.0341
18659W        W49875   4.224  22.997   1.424  0.2313  0.1650 -0.0818
18660W        W49876  10.482  18.162   8.577 -0.2870 -0.1976  0.2436
18661W        W49877   7.767  25.102   0.074 -0.0067 -0.1432 -0.1619
18662W        W49878  11.656  16.863   7.727  0.0483  0.0482 -0.0701
18663W        W49879  14.617   5.919   8.303 -0.2436 -0.3247  0.1425
18664W        W49880  15.424  14.456   1.532  0.1375 -0.1829  0.1167
18665W        W49881  18.179  18.720   9.387 -0.3128 -0.2366  0.3231
18666W        W49882  26.172   7.565   0.042  0.1183 -0.1763  0.0748
18667W        W49883  26.348   7.822   7.756  0.0410 -0.4208  0.2395
18668W        W49884  23.336  19.150   1.863 -0.3023  0.0173  0.0211
18669W        W49885  20.640  11.185  10.180  0.3526 -0.3034 -0.0847
18670W        W49886   8.409  21.746   1.459 -0.0491 -0.0062  0.1899
18671W        W49887   8.611  12.467   9.507 -0.1023 -0.2873  0.0284
18672W        W49888  23.289  11.041   9.286 -0.0830 -0.0868 -0.2052
18673W        W49889  22.991   5.858   2.554 -0.2099  0.0294 -0.0109
18674W        W49890  15.901   6.112   2.842 -0.0435  0.1108  0.1386
18675W        W49891   0.901  25.097   9.488 -0.1175 -0.0206 -0.0517
18676W        W49892  15.925   6.037   3.445  0.0912  0.3136  0.3896
18677W        W49893  25.454  24.779   0.731 -0.2937  0.1136 -0.4728
18678W        W49894  15.284   0.935   8.818 -0.0623  0.0038 -0.2044
18679W        W49895  11.600   4.599   7.563  0.3661 -0.0280 -0.3196
18680W        W49896  18.710  11.268   2.813  0.0122  0.2639 -0.0913
18681W        W49897   7.159  25.697   9.972 -0.1896 -0.0579  0.0007
18682W        W49898  10.562   4.383   1.695  0.3536  0.1165  0.0928
18683W        W49899  10.365  25.663  10.338  0.3070  0.0481 -0.1166
18684W        W49900  10.052   3.869   7.535  0.1738 -0.0792 -0.0038
18685W        W49901   0.200  26.595   0.953 -0.2281 -0.0018 -0.0347
18686W        W49902  13.196   9.679   1.591 -0.1537  0.0490  0.1165
18687W        W49903   9.404  23.323   9.495 -0.0890 -0.1560  0.2245
18688W        W49904   9.124  13.184   1.414 -0.3661 -0.0831  0.1051
18689W        W49905   6.978  19.958   7.466 -0.1268 -0.1197 -0.1646
18690W        W49906  16.180   5.078   8.377 -0.1058  0.1382 -0.2675
18691W        W49907  20.055   4.316   1.948  0.1838 -0.0486  0.0781
18692W        W49908   4.872  20.385   2.929 -0.0027  0.2391 -0.0763
18693W        W49909  14.823  15.446   1.450  0.0180 -0.4729 -0.0386
18694W        W49910   6.570  24.626   8.661  0.0358 -0.3269 -0.2633
18695W        W49911   7.808  24.634   0.075 -0.3705  0.0599  0.1503
18696W        W49912  15.658   4.591   1.760 -0.2096 -0.1464  0.3051
18697W        W49913  20.947  12.108   3.048 -0.1778  0.4069  0.2857
18698W        W49914  27.037  23.131   0.642 -0.1400 -0.0169 -0.5093
18699W        W49915  24.548  20.852   2.725 -0.0936  0.1428 -0.0046
18700W        W49916   5.154  14.913   2.769  0.2641  0.1604 -0.0677
18701W        W49917  16.036  14.017   7.318  0.1465 -0.0337  0.1636
18702W        W49918   1.853  23.885   2.698  0.0330 -0.2179  0.1303
18703W        W49919   8.094   0.841   8.464  0.1683 -0.0843 -0.0437
18704W        W49920  10.799   7.698   2.645  0.0711  0.1278  0.0192
18705W        W49921   9.169  19.700   7.596 -0.3873 -0.0628 -0.3211
18706W        W49922   4.950  21.649   8.511 -0.2260  0.3900  0.1961
18707W        W49923  18.394  14.709   0.026 -0.0300  0.0703 -0.0415
18708W        W49924  21.967   8.002   1.246 -0.2713  0.0089 -0.0933
18709W        W49925   0.183  20.516   7.489  0.3193 -0.2720 -0.1271
18710W        W49926  14.040  21.504   9.177  0.0345 -0.0675  0.0493
18711W        W49927  11.063  11.326   8.232  0.0562  0.3257  0.0524
18712W        W49928  20.444  23.977   1.053 -0.5507 -0.2444 -0.1819
18713W        W49929  19.871   5.131   9.793 -0.1303 -0.3153 -0.0890
18714W        W49930  27.269  27.375   0.470 -0.2781 -0.0796 -0.0303
18715W        W49931  10.991  20.236   2.425 -0.0139 -0.1883  0.1124
18716W        W49932  13.179  11.615  10.249  0.0418  0.1029 -0.0516
18717W        W49933  24.811  22.966   8.735 -0.0631 -0.1874 -0.0512
18718W        W49934  20.294  11.026   0.075  0.0064 -0.0861  0.3172
18719W        W49935  19.466  17.823   7.491 -0.0302 -0.1605 -0.0904
18720W        W49936   2.743  10.430   0.470  0.1558 -0.0015 -0.1763
18721W        W49937  25.766   9.208   3.162 -0.0610 -0.0329 -0.2082
18722W        W49938  16.780  12.972   9.523  0.1099  0.1154 -0.2399
18723W        W49939  20.591  26.649   1.130 -0.2826  0.2361 -0.2881
18724W        W49940   0.369   3.100   2.589  0.0703 -0.2237 -0.0827
18725W        W49941  15.500  14.588   0.525  0.1564 -0.2987  0.0630
18726W        W49942  11.740   4.137   2.591  0.0582  0.3631 -0.0839
18727W        W49943   5.688  27.193   1.349 -0.1387  0.0137 -0.0504
18728W        W49944  22.469  25.329  10.058 -0.4397  0.0941 -0.3377
18729W        W49945  23.499  23.804  10.006  0.1718  0.1273  0.1815
18730W        W49946   6.576   5.980   8.186 -0.0563 -0.2457 -0.0181
18731W        W49947   7.313  10.667   8.348  0.2659 -0.1523  0.1065
18732W        W49948   2.491  16.397   9.843 -0.0111  0.0851  0.1913
18733W        W49949  24.646   0.932   9.578 -0.6102 -0.1894  0.0136
18734W        W49950  15.487  24.895   1.868 -0.0097 -0.0778  0.0234
18735W        W49951  10.488  25.129   9.408  0.0163 -0.1930  0.0651
18736W        W49952   3.940  15.675  10.343  0.0122  0.0487 -0.5916
18737W        W49953  10.176  14.606   1.687 -0.2948 -0.0954  0.1013
18738W        W49954  15.152   2.102   9.529  0.1697 -0.2634 -0.0237
18739W        W49955   0.359  12.408   0.891 -0.3455 -0.0300  0.2796
18740W        W49956  15.765  23.230   7.351 -0.0486 -0.1564  0.3083
18741W        W49957  16.261  21.225   8.393  0.0043  0.1021 -0.2036
18742W        W49958   5.565  22.403   3.722  0.2206 -0.2722  0.0440
18743W        W49959   5.272  19.464   8.315  0.0121 -0.0415  0.3018
18744W        W49960  17.029  11.500   8.219  0.0287 -0.2265 -0.0026
18745W        W49961  13.122  25.299   1.278 -0.5089  0.1522  0.0632
18746W        W49962  24.936  14.220   2.704  0.0365 -0.1396 -0.1938
18747W        W49963  25.596  22.836   7.337 -0.1084  0.2029 -0.0653
18748W        W49964  22.219  19.159   0.364  0.3572  0.3446  0.0717
18749W        W49965  24.891   0.157   8.652 -0.0742  0.3874 -0.1614
18750W        W49966  21.229   3.824   9.294  0.0576 -0.0434 -0.0378
18751W        W49967  17.150   4.064  10.258 -0.0968 -0.0138  0.1424
18752W        W49968   8.193  17.791   8.586  0.1413  0.0188 -0.4409
18753W        W49969   1.604   0.828   8.908  0.1266  0.3173  0.0237
18754W        W49970   3.538  15.553   1.030 -0.0946  0.1145  0.1893
18755W        W49971  26.263  26.921   3.001  0.0650 -0.1773  0.0180
18756W        W49972  27.127  19.362   9.568  0.0352 -0.1174 -0.1935
18757W        W49973   3.801   6.367   1.389  0.0246  0.5108 -0.1523
18758W        W49974   6.499  21.303   3.496  0.0012 -0.1599  0.3673
18759W        W49975   0.230  20.072   1.717  0.1784  0.0783 -0.1226
18760W        W49976  21.809  14.454   9.605  0.2233  0.1219  0.1867
18761W        W49977  19.782  14.065   8.276  0.0338  0.2255 -0.0676
18762W        W49978  15.343  22.524   8.885 -0.3261  0.3235  0.4178
18763W        W49979  20.835  26.546   0.091  0.2422 -0.3231  0.0162
18764W        W49980  19.567   3.324   0.541 -0.0027 -0.1677  0.0919
18765W        W49981  14.995  23.914   0.949 -0.1914  0.0075 -0.2024
18766W        W49982  27.220   9.052   2.577  0.1118  0.0419 -0.1277
18767W        W49983  19.404   8.404   1.076  0.0813  0.0648  0.0720
18768W        W49984  23.114   0.624   1.789  0.1924 -0.0193  0.0269
18769W        W49985  11.245  13.525  10.263  0.1609 -0.3050 -0.2294
18770W        W49986   2.377  21.470   0.048 -0.2144  0.0722 -0.2467
18771W        W49987  15.442   7.967  10.303  0.0279  0.1987 -0.2309
18772W        W49988   5.548   0.950   1.229 -0.0708 -0.0941 -0.0586
18773W        W49989   9.473   7.028  10.002  0.0007 -0.0659 -0.3097
18774W        W49990   5.380  25.181   2.114  0.0354 -0.1107 -0.0096
18775W        W49991  25.053  14.183   0.842  0.0554  0.0023 -0.0160
18776W        W49992  14.455  27.250  10.522 -0.0483  0.0132  0.1613
18777W        W49993  17.046   7.449   7.892 -0.2151  0.1786 -0.1412
18778W        W49994  11.637   5.361   2.791 -0.2904  0.0033  0.0742
18779W        W49995  12.591   2.716   2.732 -0.0168 -0.0408 -0.0532
18780W        W49996  23.840   4.664   1.776  0.2901 -0.1030 -0.0013
18781W        W49997   1.444  23.618   2.881  0.0951 -0.3782  0.2142
18782W        W49998  14.598   1.742  10.195 -0.1708 -0.2164  0.1445
18783W        W49999   5.487  16.575   9.784  0.0019 -0.2743  0.1160
18784W        W50000  17.783  24.217   2.992  0.0062  0.1095 -0.0875
18785W        W50001  22.181  16.549   0.350  0.3168 -0.3301  0.0587
18786W        W50002  15.655  26.187   2.588  0.3752  0.1209 -0.0376
18787W        W50003  21.389   8.050   7.927  0.0068 -0.1776  0.0171
18788W        W50004   4.146  16.352   9.863  0.2224 -0.2303  0.1652
18789W        W50005  16.056   9.967   8.255 -0.1636 -0.1139  0.1066
18790W        W50006  14.792   0.706  10.390 -0.2080 -0.2300 -0.0535
18791W        W50007  12.793  11.788   0.841 -0.1706 -0.3171 -0.0301
18792W        W50008   7.947  17.357   8.673  0.2591 -0.1183  0.1730
18793W        W50009  23.655   9.999   2.957  0.0892  0.1419  0.2482
18794W        W50010   3.232   8.517  10.527  0.1291 -0.1951  0.2721
18795W        W50011   5.877  11.324   2.739  0.1071  0.0967  0.1125
18796W        W50012   2.148   0.246   0.605  0.2230 -0.1895 -0.1211
18797W        W50013  13.493   1.364   1.636 -0.0587 -0.0991  0.1530
18798W        W50014   0.524   0.161   2.212  0.1610  0.0914 -0.1483
18799W        W50015   6.508  24.219   9.393  0.1908 -0.1328  0.3038
18800W        W50016   0.506  23.759   0.303 -0.0064  0.3820  0.1514
18801W        W50017  23.145  11.485   2.891  0.0551 -0.4967 -0.4188
18802W        W50018   0.536  18.852   8.829 -0.0206  0.1556 -0.4643
18803W        W50019  13.469  14.575   2.850  0.1241  0.1100  0.0974
18804W        W50020   6.825   4.148   2.148 -0.0393 -0.1883 -0.0820
18805W        W50021  14.550  21.360   0.981 -0.1504  0.1382  0.2298
18806W        W50022  26.804   2.290   9.945  0.0605 -0.0975 -0.2051
18807W        W50023  16.265  19.254   0.521 -0.0940  0.2087 -0.3176
18808W        W50024  16.876   6.894   0.319 -0.1317 -0.0624  0.4859
18809W        W50025   2.922   8.395   3.474  0.0603 -0.0970  0.2450
18810W        W50026   3.704  12.709   0.221 -0.0096 -0.1859  0.1422
18811W        W50027  10.458  21.905   1.249  0.1490 -0.0255  0.1051
18812W        W50028  14.271   5.338   1.951  0.0070  0.1678 -0.0586
18813W        W50029  12.920   4.566   2.260 -0.0625  0.0403  0.3136
18814W        W50030  12.057  18.971   2.827  0.4685 -0.0316  0.4847
18815W        W50031  20.860   2.103   1.586  0.0061  0.1801 -0.0085
18816W        W50032  11.045  11.370   1.233  0.3260 -0.0307  0.0578
18817W        W50033   9.317  14.378   0.491 -0.2681 -0.2489  0.1951
18818W        W50034  20.376   1.126   1.792 -0.0559 -0.1028 -0.1397
18819W        W50035  25.607   9.160   0.170 -0.0146  0.2244  0.3675
18820W        W50036  11.586   8.456   3.716  0.0225  0.1727  0.0189
18821W        W50037  12.430  25.166  10.173  0.3339  0.0169 -0.0352
18822W        W50038   0.726  23.692   9.166  0.1553 -0.1924  0.0547
18823W        W50039   2.494  22.409   9.544  0.0556  0.2608  0.0688
18824W        W50040   2.804  22.706   3.470 -0.0750  0.0258  0.0223
18825W        W50041   5.653   2.042   9.324  0.0467 -0.3786 -0.1411
18826W        W50042   2.519  23.115   8.400  0.0766  0.1143 -0.1546
18827W        W50043   2.755  20.699   8.075 -0.2469 -0.0537  0.1658
18828W        W50044   6.532  26.692   2.738 -0.1330  0.1812 -0.1169
18829W        W50045  22.516   2.527   0.243  0.0736  0.1361 -0.0828
18830W        W50046  27.006   8.857   9.508 -0.2018 -0.4016 -0.3819
18831W        W50047  26.444  20.168   7.874 -0.3264  0.4747 -0.0367
18832W        W50048  11.925  27.099   1.810 -0.1673 -0.1468 -0.0883
18833W        W50049   7.065  25.375   2.852 -0.1843 -0.1042  0.2602
18834W        W50050   9.500   6.409   1.824 -0.0904 -0.3951 -0.3797
18835W        W50051  23.177  17.831   2.430 -0.0155 -0.0532  0.3274
18836W        W50052  23.878  14.837   0.575 -0.3089  0.0239  0.2624
18837W        W50053  16.893   7.647   2.727  0.0515  0.0275  0.2032
18838W        W50054  17.435  16.169   8.607  0.0755 -0.0167 -0.2982
18839W        W50055  15.069  11.061   1.120  0.1426 -0.1270  0.3198
18840W        W50056  13.860  16.793   0.880 -0.2012 -0.0915  0.0928
18841W        W50057  27.316  13.787   7.992 -0.1017  0.0850  0.1695
18842W        W50058   5.875  24.358   1.959 -0.1480 -0.2028 -0.3349
18843W        W50059  12.516   3.211   0.228  0.0962  0.0071 -0.1789
18844W        W50060   8.834   0.641   8.137 -0.0076  0.1111 -0.2741
18845W        W50061   9.868   2.978   7.623 -0.1995 -0.3947  0.0656
18846W        W50062  20.465   4.067  10.135  0.1268  0.0480  0.1209
18847W        W50063  24.564  26.498   2.337  0.1221  0.0298  0.5827
18848W        W50064  18.159  24.552  10.171 -0.0514 -0.2443  0.0364
18849W        W50065  18.505  24.821   2.788 -0.2991 -0.4212 -0.0988
18850W        W50066  13.688  24.988   2.842  0.0831 -0.2616  0.0751
18851W        W50067  11.935  15.635   9.499  0.2311  0.0853 -0.3009
18852W        W50068   1.851  13.599   8.189 -0.3319 -0.2769 -0.1112
18853W        W50069  20.579   2.553   3.320 -0.1910  0.0149  0.3995
18854W        W50070  10.807   1.984   0.748  0.2194 -0.1545 -0.1939
18855W        W50071  26.959   7.449   9.391 -0.0955 -0.0064  0.0913
18856W        W50072   2.669  22.711   1.776 -0.0241  0.1978 -0.1897
18857W        W50073  27.460   6.714   3.346  0.1896 -0.1003  0.4414
18858W        W50074  24.025  25.628   0.031  0.0378  0.1591  0.0807
18859W        W50075  16.620  24.845   0.697 -0.0358 -0.2322 -0.0605
18860W        W50076  16.661  11.755   1.023  0.0056  0.0704  0.4347
18861W        W50077  26.205  24.869   7.220 -0.4095  0.0678 -0.0532
18862W        W50078   0.296   5.019   3.415 -0.1356 -0.1361 -0.0864
18863W        W50079   9.371   6.471   9.904 -0.0433 -0.1229  0.2486
18864W        W50080  26.674   1.911   0.116 -0.1083  0.2011 -0.3911
18865W        W50081   3.341   3.508   3.323  0.3082  0.2227 -0.2590
18866W        W50082  17.153  22.238   2.379 -0.1371 -0.1041  0.2295
18867W        W50083  20.650   3.052  10.425  0.2604 -0.0233 -0.0487
18868W        W50084  15.969  15.325   8.117 -0.1598 -0.0601  0.1691
18869W        W50085  13.024  11.617   0.484 -0.2833 -0.1090  0.2463
18870W        W50086  26.398   9.021   9.555 -0.0051  0.1108 -0.4980
18871W        W50087   6.158   0.434   7.451 -0.0131  0.0857 -0.1087
18872W        W50088  14.535  14.387  10.040  0.2308  0.4011  0.1807
18873W        W50089  25.775  13.776   3.542 -0.2689  0.0558 -0.0941
18874W        W50090  17.123  21.883   8.420  0.3401  0.3606 -0.3007
18875W        W50091  22.759   4.165   8.496 -0.2646 -0.2212 -0.2987
18876W        W50092  25.997   3.062   9.515 -0.1357  0.0233  0.0903
18877W        W50093   2.818  13.202   0.164 -0.4156  0.0596 -0.0417
18878W        W50094  24.010   8.576  10.287 -0.0471 -0.0900  0.0882
18879W        W50095  15.376  13.522   2.536  0.1842 -0.0556  0.0438
18880W        W50096   2.647  18.375   8.204  0.0950  0.0778  0.0760
18881W        W50097   9.635  11.207   0.707  0.0149  0.1610 -0.0554
18882W        W50098   3.537  20.212   8.721  0.0375 -0.2608  0.0290
18883W        W50099  17.685  17.252   0.597 -0.1119 -0.0292  0.1523
18884W        W50100  17.566  23.113   8.957  0.1705 -0.4991 -0.0944
18885W        W50101  19.619  27.377   8.417 -0.1480  0.0505  0.0422
18886W        W50102  12.953  22.669   9.791  0.3977  0.2209 -0.2087
18887W        W50103  23.528  17.611  10.116 -0.1967 -0.3524  0.0926
18888W        W50104   3.074  11.793   0.687  0.0973  0.0016 -0.0447
18889W        W50105  25.934  16.636   1.760 -0.0745  0.1356 -0.2509
18890W        W50106   3.916   1.452   8.232  0.1103 -0.1356 -0.1093
18891W        W50107  14.530  18.238   2.404  0.1856  0.1923 -0.0635
18892W        W50108   9.123   5.344   7.949  0.0552 -0.0116  0.1552
18893W        W50109   6.027   3.084   1.530 -0.0470  0.0086  0.0989
18894W        W50110   2.737  12.740  10.512 -0.3139  0.0281  0.2862
18895W        W50111  22.740   6.888   0.108 -0.0372  0.2163 -0.1146
18896W        W50112  15.822  10.688   8.485 -0.2417  0.2000 -0.0966
18897W        W50113  20.414   6.514  10.538 -0.1307  0.0447  0.2671
18898W        W50114  13.167  14.124   2.771 -0.0805  0.1363 -0.2792
18899W        W50115  13.037  14.571   8.627 -0.1399  0.3955 -0.0774
18900W        W50116  10.335   7.639   1.956 -0.0817 -0.3577  0.1909
18901W        W50117  23.608   8.202   1.979 -0.2302 -0.0701  0.3919
18902W        W50118  15.752  21.332   9.318 -0.1976 -0.0903  0.0054
18903W        W50119   6.494  18.908   8.513 -0.1764  0.0150  0.0987
18904W        W50120  19.013   3.060   9.474  0.0549  0.0674  0.1024
18905W        W50121  23.434   7.929   0.365  0.3980  0.2380  0.4865
18906W        W50122  18.745   3.874   9.064  0.1219 -0.2343  0.2677
18907W        W50123  12.901  18.323   0.816 -0.0372 -0.4177  0.0614
18908W        W50124  21.104   6.509   7.789  0.0716  0.1573  0.2302
18909W        W50125   3.299   4.360   9.760  0.0325  0.1372  0.1640
18910W        W50126  19.822  20.927   1.822 -0.2200 -0.1369 -0.2051
18911W        W50127   7.273   2.485   8.831 -0.1966  0.1645  0.0105
18912W        W50128  23.756   9.560   9.784  0.4527  0.0352 -0.1071
18913W        W50129   8.873  25.221   3.723  0.2850 -0.1576 -0.0592
18914W        W50130   5.494  10.991   0.317  0.0464  0.0685  0.0320
18915W        W50131  18.316   1.373  10.027 -0.1545 -0.1080 -0.3561
18916W        W50132  19.702   4.322   0.589  0.0063  0.1503 -0.1419
18917W        W50133   2.784  24.277   9.348 -0.0895 -0.0449 -0.0927
18918W        W50134   9.533   4.345   2.101  0.2092  0.4965  0.0113
18919W        W50135   8.101  23.255   9.702 -0.0187  0.3194 -0.2642
18920W        W50136   7.822  26.291   3.228 -0.3215  0.0371  0.0276
18921W        W50137  27.004  10.298   9.304  0.1594  0.0068  0.1753
18922W        W50138  24.021   4.550   9.840  0.0119 -0.2639 -0.0123
18923W        W50139   3.355  21.656   1.775 -0.0686  0.0858 -0.1687
18924W        W50140  26.377   1.199   8.006 -0.0560 -0.5664  0.2526
18925W        W50141   2.847   1.155   2.629 -0.0135  0.0852  0.3533
18926W        W50142   6.294   7.103   9.859  0.1686 -0.4467 -0.0344
18927W        W50143  27.114  16.493   8.947  0.1048  0.1566  0.1243
18928W        W50144  15.887   9.636   0.022 -0.1462 -0.1676  0.1491
18929W        W50145  10.131  11.299   1.059 -0.2792 -0.0879 -0.1099
18930W        W50146  25.784  26.795   1.408  0.0371 -0.3245  0.0064
18931W        W50147  15.736  22.872   0.395  0.1054  0.2690  0.1005
18932W        W50148  22.740  23.506   0.540 -0.1431  0.2460 -0.1934
18933W        W50149  11.050  11.729   3.157 -0.0484  0.1053  0.1837
18934W        W50150  16.571  11.844   8.129 -0.2824  0.0366  0.3485
18935W        W50151  18.652  13.315   0.046 -0.1726 -0.2166  0.2328
18936W        W50152  10.154   9.730   0.719  0.2843 -0.1357  0.2232
18937W        W50153  16.607   5.879   2.107  0.0103  0.1693 -0.0080
18938W        W50154  25.121   5.827   0.370 -0.3110  0.1803 -0.3054
18939W        W50155   4.902  26.534   9.261 -0.1049  0.3383  0.4465
18940W        W50156   7.307  21.732   2.513  0.2480  0.0103  0.0869
18941W        W50157  27.119   7.474  10.221 -0.0482 -0.0505  0.0409
18942W        W50158  11.651  14.382   0.064 -0.1819 -0.2133  0.0192
18943W        W50159   1.834   5.827   8.682 -0.0613 -0.0077  0.1094
18944W        W50160  17.986   8.475   1.223  0.0024 -0.1886  0.0192
18945W        W50161  23.335   4.914   0.243 -0.1033  0.0526 -0.0018
18946W        W50162  12.794   7.257   0.391  0.0639 -0.0111  0.1135
18947W        W50163  20.163   3.705  10.300 -0.3581 -0.1560 -0.2170
18948W        W50164  18.989  14.208   2.330 -0.1368  0.0407  0.2042
18949W        W50165  14.706  24.588   0.246  0.1391 -0.2629 -0.3398
18950W        W50166   0.949   6.747   0.583 -0.0380 -0.2273  0.1079
18951W        W50167   0.332   0.791   0.669 -0.0154 -0.2400 -0.1361
18952W        W50168  19.479  22.842   8.476  0.3009 -0.1039 -0.0746
18953W        W50169  14.195  22.700   8.489  0.0454  0.1678  0.0415
18954W        W50170  26.384  27.031   9.599 -0.0448  0.1821  0.3038
18955W        W50171  21.928  24.666   3.620 -0.0083 -0.0672 -0.0151
18956W        W50172   5.744  21.221  10.319  0.1060  0.2630  0.0631
18957W        W50173  13.354  10.272   2.597  0.3380  0.0774 -0.1802
18958W        W50174  16.790  18.951   9.423  0.2041  0.0287 -0.0269
18959W        W50175  11.818  15.425   1.631 -0.2387 -0.0269 -0.0884
18960W        W50176  23.671   1.283   3.405  0.2410  0.0476  0.1080
18961W        W50177  14.987   5.055   3.021  0.1026  0.2972 -0.1027
18962W        W50178  18.325  23.304   9.991 -0.1028 -0.3300  0.1325
18963W        W50179  11.587  13.983   7.579 -0.2594 -0.0637 -0.2735
18964W        W50180   1.628   9.552   3.395  0.0492  0.0246  0.1610
18965W        W50181  25.836  17.449   2.170  0.0491  0.0676  0.2086
18966W        W50182   9.901   7.830   2.240  0.1129  0.1085 -0.0738
18967W        W50183  19.720  18.295   8.411 -0.0842  0.0298  0.1316
18968W        W50184  10.475  10.699   2.431 -0.0769 -0.0187  0.0203
18969W        W50185   5.183  14.770   0.549  0.1259  0.2366  0.0962
18970W        W50186  20.998  26.709   8.962  0.2234  0.0338  0.1456
18971W        W50187   5.682  10.499   0.810 -0.1871  0.1521 -0.0877
18972W        W50188  14.301  20.228   0.335 -0.0155 -0.0716 -0.1256
18973W        W50189  13.302  21.248   0.311  0.3754  0.1453 -0.0819
18974W        W50190   1.964   2.225   3.176  0.0926 -0.0492  0.2849
18975W        W50191  24.211  21.540   2.264 -0.0700  0.1054  0.2566
18976W        W50192   7.376   2.428   9.655 -0.0232  0.2127 -0.0224
18977W        W50193   6.728  13.211   9.319  0.0290 -0.2723 -0.0119
18978W        W50194  21.720  14.060  10.419  0.0428 -0.0350 -0.1788
18979W        W50195  14.624  23.280   1.889 -0.2187 -0.1908  0.0960
18980W        W50196   6.124  27.244   1.943  0.2747 -0.1314 -0.0073
18981W        W50197  22.034  26.130   1.488 -0.0999 -0.0145  0.1367
18982W        W50198   4.304  16.895   9.130  0.1278 -0.0917 -0.2583
18983W        W50199  11.273  24.589   2.055  0.0878  0.0964  0.0903
18984W        W50200  18.518  21.168   8.422  0.0888  0.1647 -0.0837
18985W        W50201   3.202  25.770   1.706  0.1583  0.1345  0.1222
18986W        W50202   7.748  13.032   0.342 -0.2046 -0.1963  0.1155
18987W        W50203  15.631   3.227   1.975  0.1956 -0.2973  0.2271
18988W        W50204   5.684  24.856   0.275 -0.0080  0.2991 -0.0639
18989W        W50205   2.524  20.957   2.290 -0.0588 -0.1918 -0.2829
18990W        W50206  21.526   4.309   0.890  0.0946  0.0689 -0.0306
18991W        W50207  14.213   0.368   0.642  0.0204 -0.2680 -0.0729
18992W        W50208   7.907   3.650   0.433 -0.1607 -0.2887  0.0080
18993W        W50209  19.873  27.321  10.383  0.3242  0.4419 -0.0520
18994W        W50210  22.197   6.561   0.537 -0.1146 -0.0865 -0.2729
18995W        W50211  15.530  24.432   3.109 -0.2312 -0.0938 -0.1874
18996W        W50212  15.263  16.757   8.015  0.3699  0.2784  0.1269
18997W        W50213  25.803  23.791   0.750 -0.0280  0.5768  0.3813
18998W        W50214  17.255  19.169   9.537 -0.0996  0.4329 -0.3376
18999W        W50215  14.899   0.530   8.275  0.4393  0.1802 -0.0316
19000W        W50216  21.579   1.109   7.821 -0.0637  0.0117  0.2445
19001W        W50217  16.431  19.784   9.691  0.0998  0.0065 -0.1696
19002W        W50218  19.852  25.747   9.064  0.0792 -0.1464 -0.0461
19003W        W50219   5.525   6.026  10.047 -0.4451  0.1744 -0.0504
19004W        W50220  27.258  17.843   0.103 -0.1401  0.2038 -0.0331
19005W        W50221   5.293  21.460   1.459 -0.2135 -0.1832  0.2447
19006W        W50222  13.055   1.381   1.316 -0.1275 -0.0503 -0.1384
19007W        W50223  17.067  10.183   8.560  0.1708 -0.0873  0.2022
19008W        W50224   9.812  12.622   9.109 -0.1056 -0.1158 -0.0967
19009W        W50225   8.769  16.704   7.552  0.0195 -0.0845 -0.0245
19010W        W50226   5.757  19.119  10.235  0.0823  0.1352  0.1863
19011W        W50227  14.945  14.353   0.771 -0.1831  0.0974 -0.3481
19012W        W50228   6.834  24.669   2.626  0.3698 -0.1668  0.0245
19013W        W50229  12.023  25.994  10.289  0.3164 -0.0206  0.0271
19014W        W50230   3.242  18.521   9.179 -0.0069  0.1828  0.1986
19015W        W50231  19.942   8.626  10.355 -0.2021  0.0247 -0.1955
19016W        W50232   6.150  14.357   8.259 -0.0113 -0.0472  0.0590
19017W        W50233  23.719  20.887   8.155 -0.0435 -0.0660 -0.0517
19018W        W50234   3.593  20.699   7.952 -0.1831  0.2165 -0.3207
19019W        W50235   7.546  13.517   0.053  0.0005 -0.2474  0.0215
19020W        W50236  20.913  15.223   8.381  0.2984 -0.1658  0.1437
19021W        W50237   0.869  16.598   2.607 -0.2553  0.3391 -0.0450
19022W        W50238   8.749  25.763   3.544  0.0601  0.4300  0.0055
19023W        W50239   3.828   3.473   9.851 -0.0421  0.1382 -0.2578
19024W        W50240  19.987  23.235   0.851 -0.1744 -0.0358  0.1691
19025W        W50241  25.326   6.927   9.666  0.1409 -0.0628 -0.2616
19026W        W50242   9.931  20.764   0.751  0.2443  0.3583 -0.0242
19027W        W50243  16.718  19.801   8.772  0.0573  0.0170  0.0278
19028W        W50244   3.783  27.279   2.017 -0.3639  0.0364 -0.1179
19029W        W50245  14.621   3.959   8.341 -0.0162  0.0611 -0.2458
19030W        W50246  23.457  18.872   2.877  0.2792 -0.3796  0.1481
19031W        W50247  12.247   1.144   1.538 -0.2177  0.1940 -0.1768
19032W        W50248  15.931  14.492   1.149 -0.2482 -0.2763 -0.1518
19033W        W50249   9.790  15.809  10.441 -0.1252 -0.0072 -0.1761
19034W        W50250  14.383  19.884   0.689 -0.0578 -0.3654  0.1651
19035W        W50251  17.202   3.055   3.160 -0.0564  0.3751 -0.1136
19036W        W50252  23.519   9.384   8.945 -0.0597  0.2462  0.1288
19037W        W50253   7.141   5.265   8.941 -0.0505  0.1305 -0.1791
19038W        W50254   6.147  14.599   2.330 -0.2585 -0.0811  0.1228
19039W        W50255  25.512  18.007   0.022 -0.0656 -0.2332 -0.0215
19040W        W50256  25.632   3.356   9.342  0.0333 -0.2036 -0.1764
19041W        W50257  12.876  25.952   0.590  0.0094  0.1466 -0.0477
19042W        W50258  12.870  24.978   8.735  0.1209 -0.0630  0.1906
19043W        W50259  16.204  24.593  10.402  0.1203  0.0382 -0.3367
19044W        W50260  18.549  18.384   9.427  0.0715 -0.0284  0.1006
19045W        W50261  19.768  26.295   7.918  0.1299 -0.0778 -0.2377
19046W        W50262   2.681   6.333  10.351  0.1447  0.1582 -0.0342
19047W        W50263   9.369   0.541   8.378  0.0700  0.3182 -0.0521
19048W        W50264  23.437  14.594  10.430  0.0211  0.2951  0.1452
19049W        W50265  14.014   2.780   0.378 -0.1837 -0.0464 -0.1803
19050W        W50266  14.667  16.377   9.700  0.3622  0.0304  0.0054
19051W        W50267   7.546   6.360   2.244 -0.1331 -0.1929  0.1326
19052W        W50268   9.863  12.777   8.049 -0.1186  0.0490 -0.4816
19053W        W50269  24.241  14.663   2.218 -0.0830  0.0506  0.2120
19054W        W50270   8.453   5.850   9.479 -0.2700 -0.1118  0.1967
19055W        W50271  11.716   4.843   1.360  0.1002  0.1030 -0.1345
19056W        W50272  23.453  22.469   7.117 -0.5295  0.1512  0.0078
19057W        W50273  23.689  21.647   8.458 -0.2846  0.0585 -0.1325
19058W        W50274   6.581   2.372   7.568 -0.0050  0.0952  0.0425
19059W        W50275   4.162  27.585   3.268  0.0773  0.0877 -0.0861
19060W        W50276   5.544   9.460   1.032  0.2083 -0.3072 -0.2258
19061W        W50277   5.198   4.512   2.305 -0.1056 -0.2017 -0.0361
19062W        W50278  19.028  13.726   1.633 -0.0421 -0.1683 -0.1048
19063W        W50279  16.070  22.811   9.175  0.1924 -0.0084  0.2284
19064W        W50280  13.234  10.598   0.198  0.0187  0.0505 -0.1110
19065W        W50281   6.809   5.387   7.908 -0.0815  0.1263 -0.2565
19066W        W50282   2.084  16.907   2.246 -0.2789 -0.0057  0.0532
19067W        W50283  16.426   4.451   9.159  0.1061 -0.1040 -0.1085
19068W        W50284   7.822   5.489   0.839 -0.0534  0.2190  0.0917
19069W        W50285   3.166  18.789   0.766  0.1043  0.2366 -0.4678
19070W        W50286   2.215   7.177  10.362  0.0522 -0.0226 -0.0035
19071W        W50287  10.620   4.238   3.251  0.1428 -0.0676  0.0330
19072W        W50288   0.169  12.986   3.186  0.3009  0.0701 -0.0688
19073W        W50289   4.133  22.198   7.715 -0.2755  0.3214  0.1399
19074W        W50290  15.385   7.217   2.431  0.0775  0.0689  0.2173
19075W        W50291  25.580  11.208   4.162 -0.1767 -0.0189  0.1779
19076W        W50292  23.750  11.560   8.565  0.1045 -0.2910  0.3783
19077W        W50293   5.830   8.490   1.942  0.2972 -0.0409  0.0054
19078W        W50294  16.488  15.912   0.091  0.1368  0.1575 -0.0747
19079W        W50295   4.591   8.181   8.858 -0.0097  0.0360  0.2026
19080W        W50296   6.837  12.887   1.644  0.2400  0.1372 -0.1492
19081W        W50297   4.594  18.368   2.962  0.0234  0.0433 -0.0844
19082W        W50298   6.821  12.031   0.466 -0.2176 -0.0210 -0.2651
19083W        W50299  20.005  15.497   0.361 -0.1539 -0.1179  0.0979
19084W        W50300   4.757  16.135   0.196  0.0156 -0.1952  0.0325
19085W        W50301  22.568   4.458   8.919 -0.1258 -0.1600 -0.1059
19086W        W50302  17.795  11.888   8.959 -0.0102 -0.0813  0.2512
19087W        W50303   5.343  18.842   3.866 -0.1536 -0.0228  0.0591
19088W        W50304   0.930  26.772   8.645  0.0548  0.2332  0.1217
19089W        W50305  27.398  22.000   1.305  0.1422  0.0380  0.0199
19090W        W50306   3.659  15.013   2.796  0.0015  0.0027 -0.0698
19091W        W50307   3.444   6.776   8.693  0.3020 -0.2886 -0.0315
19092W        W50308  15.763  25.347  10.089 -0.1329  0.2198  0.1089
19093W        W50309  27.014   0.204   2.958  0.0827  0.0347 -0.0387
19094W        W50310  21.587  26.892   1.130  0.0040 -0.0571 -0.1696
19095W        W50311  19.844   3.913   0.048 -0.2597  0.0485 -0.1131
19096W        W50312   8.758  21.073   0.999  0.2277  0.1040 -0.2351
19097W        W50313   9.599  19.736   0.736 -0.1479  0.1342  0.1497
19098W        W50314  21.946  12.654   0.723 -0.3947  0.2144 -0.0100
19099W        W50315  16.918   0.070   9.185  0.1575 -0.0274 -0.1431
19100W        W50316   3.620  11.706   9.392  0.1761  0.1652 -0.0576
19101W        W50317  14.000   3.986   9.481 -0.2405  0.1317  0.3615
19102W        W50318  24.634   7.700   0.703  0.1082 -0.1705 -0.0355
19103W        W50319  10.496   3.746   7.848  0.1978 -0.2269  0.3039
19104W        W50320  21.269  17.178   2.231  0.0882 -0.3394 -0.0729
19105W        W50321  13.691  25.577   8.236  0.0522  0.0536 -0.2951
19106W        W50322  27.620   9.102   9.599  0.3479  0.0105 -0.0577
19107W        W50323  20.721   5.719   2.465 -0.0488  0.2391  0.0947
19108W        W50324   1.564  17.553   1.600  0.2805  0.0133 -0.0276
19109W        W50325  22.537  24.098   1.435 -0.0732 -0.3138 -0.0158
19110W        W50326  15.675  10.686   1.440 -0.0102  0.0999  0.1418
19111W        W50327   5.843   7.804   1.951  0.0932  0.0134  0.0295
19112W        W50328   5.743  10.126   8.024  0.0325  0.2663 -0.0340
19113W        W50329  17.469  18.554   7.706 -0.0142  0.3428 -0.0867
19114W        W50330   9.675   5.616   8.216  0.2639 -0.2260 -0.0249
19115W        W50331   1.311  11.157   7.693 -0.0297 -0.1817 -0.0316
19116W        W50332   5.430  25.404   3.191  0.2878  0.1220 -0.2573
19117W        W50333   3.599  17.362   0.351  0.1681  0.0177 -0.0762
19118W        W50334  24.360  15.948   7.545 -0.2018 -0.1753  0.0266
19119W        W50335  26.065   6.388   3.204  0.1585  0.0075 -0.3043
19120W        W50336   5.224   0.100   8.441  0.0661  0.1185  0.1417
19121W        W50337   4.409   4.976   8.389 -0.0670  0.0620  0.2035
19122W        W50338  25.181  22.759  10.410  0.0268 -0.1913  0.1301
19123W        W50339   5.973  25.859   9.201 -0.1043  0.0299 -0.1362
19124W        W50340  25.355  26.890   1.732 -0.0291 -0.0810 -0.1714
19125W        W50341  13.187  18.616   9.104  0.0760 -0.2434 -0.0068
19126W        W50342  12.735  22.565   8.415 -0.0446  0.0967 -0.0442
19127W        W50343  26.597  18.617   3.144 -0.0584 -0.2966 -0.0797
19128W        W50344  14.388   0.491   2.333  0.5512 -0.2835  0.0579
19129W        W50345  24.889  25.878   0.409 -0.0157 -0.1864  0.1013
19130W        W50346  20.334   4.701   2.116  0.1938 -0.2781 -0.3569
19131W        W50347  10.747  23.593   0.924 -0.0976 -0.2064  0.3742
19132W        W50348   5.211   4.780   2.768 -0.0274 -0.0073 -0.1429
19133W        W50349  13.334  24.245   9.940 -0.1838 -0.0963  0.2800
19134W        W50350   5.993   9.740   1.281 -0.0006  0.0391  0.1188
19135W        W50351   9.764   6.584   0.199 -0.1009 -0.1015 -0.0551
19136W        W50352  23.380  25.258   2.015 -0.0899 -0.1138 -0.2703
19137W        W50353   1.227  10.634   3.640  0.0482 -0.0843 -0.0639
19138W        W50354   9.416   6.757   1.457 -0.0587  0.1481  0.0525
19139W        W50355  16.490  10.709   9.011  0.0497 -0.0258  0.0243
19140W        W50356  12.734   8.189   0.716  0.2115 -0.0653  0.2801
19141W        W50357   9.849  26.735   8.076  0.1415 -0.0799  0.2338
19142W        W50358  23.177  14.772   9.527 -0.1516  0.0185 -0.1104
19143W        W50359  21.366   0.715   8.302 -0.2207  0.0410 -0.0053
19144W        W50360  13.149   8.060   7.820  0.0657 -0.1163  0.0191
19145W        W50361  19.238  24.545   3.484  0.0431  0.0959 -0.2206
19146W        W50362  10.470  14.738  10.091 -0.1394 -0.1970 -0.0788
19147W        W50363  26.599  12.739   3.808  0.0311 -0.0244 -0.0102
19148W        W50364  14.715  17.411   3.261 -0.0048  0.2819 -0.2076
19149W        W50365  25.754  18.919   2.032  0.0407  0.0573  0.3327
19150W        W50366  11.095   8.979  10.053 -0.5547  0.0559  0.3243
19151W        W50367  15.756  16.651   8.110  0.2050  0.1012  0.1940
19152W        W50368  15.218  13.490   0.372  0.0377  0.0302  0.0729
19153W        W50369   1.577   9.153   2.627 -0.0423 -0.2493 -0.1549
19154W        W50370  20.465   8.137   9.505 -0.2898 -0.4104  0.1078
19155W        W50371  25.733   7.769   1.688  0.0913 -0.0553 -0.4882
19156W        W50372   1.232   4.119   0.140 -0.0340  0.1272  0.0723
19157W        W50373  25.640  14.524   9.149 -0.0135 -0.2265 -0.1505
19158W        W50374   3.297  25.437   9.590  0.0884 -0.0837 -0.4101
19159W        W50375  17.639  20.736   2.628  0.1196  0.0844  0.0596
19160W        W50376  11.452  20.869   1.684  0.3215  0.1467 -0.1399
19161W        W50377  23.394  24.693   2.028 -0.2281 -0.0225 -0.1935
19162W        W50378  17.521   1.774   2.694 -0.0879  0.0780  0.0441
19163W        W50379  12.538   1.102   1.108  0.0058  0.0157  0.4711
19164W        W50380   4.454  25.754   9.545  0.2752  0.1404  0.0709
19165W        W50381  11.231  14.801   8.056  0.0227  0.2300  0.0214
19166W        W50382  19.667  15.482   1.251  0.2652  0.3564 -0.1075
19167W        W50383  18.011   5.334   9.892  0.1605 -0.0224  0.0805
19168W        W50384  21.521   3.997   0.434 -0.0760  0.4446 -0.0617
19169W        W50385  11.571  19.117   3.265 -0.0255 -0.0417  0.3551
19170W        W50386   6.519  11.721   2.515 -0.1665 -0.1508  0.0632
19171W        W50387  20.184   3.611   3.727  0.0184  0.1005  0.2989
19172W        W50388  23.692  19.963   1.810 -0.1303  0.1338  0.3011
19173W        W50389  25.568  22.476  10.086  0.0941  0.2517  0.2631
19174W        W50390  12.127  12.684   3.798  0.2730  0.4272 -0.0961
19175W        W50391   0.124   4.944   8.722  0.2714 -0.0029  0.0335
19176W        W50392  21.436   7.555   0.115 -0.0598 -0.0080 -0.0567
19177W        W50393   6.505   0.488   3.317 -0.0912 -0.0456 -0.0105
19178W        W50394   5.656  17.802   3.550 -0.0428 -0.0924  0.0634
19179W        W50395  11.328  18.006   1.331  0.1837  0.0851 -0.2122
19180W        W50396  11.877  20.729   2.960 -0.3773  0.5188  0.1641
19181W        W50397   1.778   5.310  10.101  0.0599  0.0138 -0.2932
19182W        W50398  17.649   5.685   8.091 -0.1172  0.0570 -0.0099
19183W        W50399  19.485  25.701   9.403 -0.1462 -0.0808 -0.1920
19184W        W50400  10.630  19.910   1.571 -0.1716 -0.1616  0.0882
19185W        W50401  12.973   2.234   1.775  0.2210  0.1050 -0.0110
19186W        W50402  21.272  25.116   0.845 -0.2894 -0.0592  0.0858
19187W        W50403   5.117  23.165   9.881  0.1516  0.2620  0.1473
19188W        W50404  20.376  23.838   8.278  0.1126 -0.2197  0.0947
19189W        W50405   8.202  11.711   9.972  0.3101  0.1002  0.0382
19190W        W50406  23.602   6.322  10.457 -0.2125  0.0942 -0.1705
19191W        W50407  24.972  25.795   8.017 -0.1217  0.1800 -0.2400
19192W        W50408  24.816  25.143   2.689 -0.0816 -0.1891 -0.2012
19193W        W50409  20.287   6.140   9.614 -0.0117  0.1148  0.0630
19194W        W50410  26.291  16.742   8.486 -0.0440  0.2241 -0.2997
19195W        W50411  22.064   1.531   9.076 -0.0162 -0.0085 -0.0587
19196W        W50412  11.596  12.982   3.854 -0.4160  0.1251 -0.2469
19197W        W50413  20.673   0.776   1.676  0.3779 -0.3718 -0.0477
19198W        W50414   1.320  27.606  10.030  0.1189 -0.2484 -0.1518
19199W        W50415  25.984  21.683   9.684 -0.0603 -0.0466 -0.1179
19200W        W50416  17.250  22.633   8.780  0.1023 -0.2941  0.2056
19201W        W50417   3.049  19.889   9.139  0.0968  0.2529  0.0771
19202W        W50418  20.389   8.888   3.327  0.3730 -0.1595  0.0791
19203W        W50419  18.850  17.119   2.628  0.2342 -0.2805 -0.0768
19204W        W50420  17.681  14.673   8.577 -0.0576 -0.1094  0.0995
19205W        W50421   5.135  10.711   8.695 -0.2364 -0.1707 -0.0444
19206W        W50422  16.718  16.998   8.989  0.1793 -0.1948  0.1546
19207W        W50423  25.778  15.541   8.493 -0.1712  0.0562 -0.3827
19208W        W50424  17.026   7.723   1.734 -0.0816 -0.1212  0.0009
19209W        W50425  16.973   4.370   8.285  0.0498 -0.0780 -0.1966
19210W        W50426  19.063  22.907   3.384  0.0395 -0.0656 -0.2382
19211W        W50427   1.704  22.371  10.140 -0.1398  0.0440  0.0517
19212W        W50428  16.236  27.008   2.061  0.2346 -0.2261  0.0545
19213W        W50429  24.486   1.245   1.481  0.3264  0.4207  0.1038
19214W        W50430  16.596  16.544   9.388  0.0049 -0.0787 -0.3198
19215W        W50431  13.377   2.478   0.155 -0.0719 -0.0975 -0.0975
19216W        W50432   3.345  25.099   8.613  0.0377  0.0213 -0.1615
19217W        W50433  25.359   1.229   8.941  0.2122  0.3162  0.1688
19218W        W50434   4.530  14.689   9.350  0.1419  0.1137  0.3715
19219W        W50435  20.613  22.672   2.594  0.0422  0.0058  0.1510
19220W        W50436  15.937   6.264   9.400 -0.0666 -0.4304 -0.1928
19221W        W50437   6.430  11.579  10.168 -0.2419 -0.2802  0.1202
19222W        W50438   1.734  19.443   3.027 -0.1856  0.2085 -0.0754
19223W        W50439  13.711  22.285   0.893 -0.0306 -0.0439  0.2969
19224W        W50440  25.294  16.824  10.315  0.0952 -0.2012 -0.2266
19225W        W50441  12.793  22.293   0.845 -0.0057  0.1720 -0.0151
19226W        W50442  22.206  10.778   2.048  0.1182 -0.1482  0.2125
19227W        W50443  14.494  14.403   1.189 -0.1036  0.1848 -0.1201
19228W        W50444   2.644   8.132   0.569  0.1064  0.1032  0.0007
19229W        W50445  27.412   1.946  10.012  0.0800 -0.0268  0.1523
19230W        W50446   9.802  23.303   8.161  0.0501 -0.0159  0.1075
19231W        W50447  16.964  11.748   1.455  0.0216  0.1738  0.0098
19232W        W50448   8.991  19.229   1.310 -0.0182  0.0368  0.1452
19233W        W50449   2.618  18.871   8.416  0.1145  0.1338  0.0444
19234W        W50450   4.554   2.785   2.524 -0.2365  0.0413 -0.1992
19235W        W50451  26.739  14.819   2.211  0.2166  0.0948  0.2506
19236W        W50452  14.588   9.313   9.601 -0.1104 -0.1502 -0.3499
19237W        W50453  13.414   6.113   2.739  0.0507 -0.1205  0.0604
19238W        W50454   8.930  23.140   9.512 -0.0421  0.0832  0.1402
19239W        W50455  15.225  25.677  10.178 -0.3352  0.1136  0.1368
19240W        W50456  14.011  25.336   7.927  0.4329  0.1115 -0.1939
19241W        W50457  25.223  12.462  10.412 -0.1803  0.2159 -0.1162
19242W        W50458  23.663   0.234   9.351 -0.4711  0.3044  0.0946
19243W        W50459   9.707  20.480   7.005 -0.0955 -0.1047  0.2176
19244W        W50460  20.479   7.835   2.043 -0.1788 -0.0074 -0.1124
19245W        W50461  17.810   7.011   7.939  0.2177 -0.0683 -0.0472
19246W        W50462   9.759  22.936   1.540 -0.0639  0.2930  0.1706
19247W        W50463  24.352  27.016   9.141  0.2606 -0.1405  0.1658
19248W        W50464   5.966  19.447   9.762 -0.0252  0.1193  0.0874
19249W        W50465   2.746   0.817   1.070  0.0524  0.1739  0.1866
19250W        W50466  21.394  11.344   2.450 -0.0722 -0.0836  0.0493
19251W        W50467   5.968   7.295   8.195 -0.0573  0.0454  0.1444
19252W        W50468  23.588  18.299   7.787  0.0425  0.3739  0.1240
19253W        W50469  23.384   0.379   9.000  0.3005 -0.0692  0.1939
19254W        W50470  10.379  12.054  10.071  0.1643 -0.0224 -0.1046
19255W        W50471   7.167   8.200   3.216  0.1600 -0.0632  0.2587
19256W        W50472  23.889  17.335   2.688  0.1522 -0.2850 -0.0275
19257W        W50473  19.058   5.719   8.912 -0.1131 -0.3008 -0.1805
19258W        W50474   0.529  14.058   9.064  0.2700 -0.1808  0.0251
19259W        W50475  14.468  22.474   7.717  0.0877  0.1614  0.2542
19260W        W50476   9.052   5.437  10.024 -0.2332  0.3507 -0.1366
19261W        W50477  24.984   2.177  10.457 -0.0510  0.1910 -0.0478
19262W        W50478  17.557  10.537  10.516  0.0703 -0.0940 -0.0251
19263W        W50479  17.514  24.396   9.000 -0.2127 -0.2539 -0.1010
19264W        W50480   5.215  15.798   2.285  0.0908  0.1401  0.0358
19265W        W50481  26.105  25.837   9.006  0.1555  0.2443 -0.2668
19266W        W50482  22.854   8.124   8.137 -0.1017 -0.0159  0.1671
19267W        W50483  10.604  21.619   0.331  0.0607  0.1186  0.0285
19268W        W50484   3.969  15.966   1.717 -0.2125 -0.2829 -0.0048
19269W        W50485   0.921   0.279   9.880 -0.4525 -0.0730 -0.1106
19270W        W50486  24.511   1.399   9.369 -0.1062 -0.1961 -0.1619
19271W        W50487   9.304   5.759   3.125  0.1938 -0.0722  0.3266
19272W        W50488  12.304   5.519   8.479 -0.4834  0.2830 -0.3553
19273W        W50489  10.641   3.235   7.834 -0.1489 -0.2472 -0.0852
19274W        W50490  20.490   3.888   3.360  0.1555  0.0919  0.3706
19275W        W50491  22.371   6.392   3.126 -0.1738  0.0040 -0.0005
19276W        W50492   5.016  19.043   2.230  0.2123  0.0636 -0.3870
19277W        W50493  21.302  15.957   1.194  0.1098  0.0774  0.0510
19278W        W50494  10.116  21.974   7.378 -0.0985  0.0444 -0.1931
19279W        W50495  18.104  11.400   9.604 -0.3182 -0.1176  0.1014
19280W        W50496   2.908   9.133   0.485 -0.3332 -0.2794  0.2060
19281W        W50497   7.598   6.685  10.385 -0.2806 -0.0826 -0.1857
19282W        W50498  25.228  16.438   0.483 -0.1415  0.1991  0.0870
19283W        W50499  22.208  26.210   8.307 -0.3817 -0.2051 -0.4899
19284W        W50500  11.765  26.907   3.513 -0.0404  0.2546  0.1022
19285W        W50501  22.566   8.913   2.023  0.2008 -0.2034 -0.2710
19286W        W50502  22.199  19.099   8.434 -0.0729 -0.1131 -0.0089
19287W        W50503   7.353   2.947   8.886 -0.0852 -0.1436 -0.1614
19288W        W50504  11.734  13.244   3.053  0.2015  0.0964  0.0327
19289W        W50505  17.892  21.373   9.069 -0.0894  0.1946  0.0127
19290W        W50506  23.718   8.255   9.460  0.1216  0.0288 -0.1593
19291W        W50507  26.903  12.221   2.787  0.3151  0.0673  0.0653
19292W        W50508  18.641  15.024   0.888  0.1943 -0.0628  0.0413
19293W        W50509  13.494  19.701   0.487  0.0132 -0.6001  0.0101
19294W        W50510   6.975  23.421   3.258  0.2251 -0.1762  0.0588
19295W        W50511  15.413  22.427   1.086 -0.0292  0.0364  0.3715
19296W        W50512  12.684   6.737   2.923 -0.2222  0.2134 -0.1920
19297W        W50513   9.409  17.379   3.139 -0.0097  0.1074  0.0950
19298W        W50514   4.474  25.686   8.448  0.0079  0.3325 -0.3495
19299W        W50515   2.698  13.987  10.532 -0.1817 -0.1845 -0.2137
19300W        W50516  17.320   5.358   0.121  0.0102  0.0777  0.1224
19301W        W50517  15.155  21.826   9.610 -0.2389  0.0799  0.0652
19302W        W50518  22.127  19.717   9.316 -0.1208  0.0851  0.0823
19303W        W50519   9.387  13.458   3.422  0.2924 -0.0321  0.0487
19304W        W50520   0.511  12.102   2.576 -0.0034  0.1457 -0.1918
19305W        W50521   6.710  14.959   2.301 -0.1605 -0.4859  0.0868
19306W        W50522  17.345   4.397   2.725  0.0739  0.1472 -0.0524
19307W        W50523  26.197  27.133   0.476 -0.2214  0.1004 -0.1487
19308W        W50524   7.373   7.529  10.455 -0.2285 -0.5327 -0.0743
19309W        W50525   0.932  14.196   1.570 -0.0243 -0.0702 -0.2318
19310W        W50526  16.460  22.306   1.498  0.1038  0.3557  0.0067
19311W        W50527  14.681  22.747   9.652 -0.2748 -0.1138  0.1398
19312W        W50528   9.568  18.974  10.232  0.0060 -0.0980 -0.1330
19313W        W50529  22.260  11.856   0.341  0.0995 -0.1208  0.1552
19314W        W50530   5.186  17.008   8.297 -0.1536 -0.2961  0.0669
19315W        W50531   3.647   5.845   9.148  0.1239 -0.0303  0.0128
19316W        W50532  19.590   6.856   9.697  0.2361  0.0222  0.0795
19317W        W50533  18.637  27.159   9.096 -0.0086 -0.3049 -0.0031
19318W        W50534  16.111   9.553   9.126 -0.1955  0.1896  0.0144
19319W        W50535  21.329   8.586   3.293  0.0692 -0.2237 -0.3140
19320W        W50536   9.602   8.712   8.830  0.2427  0.0747  0.0259
19321W        W50537   2.372   7.145   3.039  0.2642 -0.0018 -0.0713
19322W        W50538  12.411   3.371   1.008 -0.2034  0.1607 -0.1833
19323W        W50539  20.185   9.366   3.194 -0.1672  0.1511  0.0270
19324W        W50540  17.255  20.458   0.935  0.0873  0.2252  0.0004
19325W        W50541   4.186   1.591   9.518 -0.1295 -0.4089  0.0171
19326W        W50542  19.370   4.676   9.560 -0.3468  0.1892 -0.0713
19327W        W50543  12.842  18.889   1.799  0.1370  0.2020 -0.2385
19328W        W50544  16.947   0.765   1.734 -0.3340 -0.0353  0.1272
19329W        W50545   8.685   5.937   8.121 -0.1246  0.1611 -0.4103
19330W        W50546  19.453  22.371   3.127 -0.0394 -0.1397 -0.1629
19331W        W50547   4.388   4.384   1.727  0.1256 -0.1998 -0.3034
19332W        W50548  27.224   5.110  10.182 -0.2547 -0.2940 -0.1501
19333W        W50549  17.556  24.763  10.190  0.1424 -0.0285 -0.3169
19334W        W50550  26.169  10.363   9.177 -0.1071  0.0518 -0.3246
19335W        W50551   7.066   3.761   8.528 -0.1085  0.2392 -0.1167
19336W        W50552   9.190   3.387   7.524 -0.4869 -0.1103  0.0375
19337W        W50553   6.784  12.269   7.723 -0.1208  0.3417 -0.1060
19338W        W50554   3.298   6.199   9.802 -0.1151 -0.0014  0.0900
19339W        W50555  23.231  13.841  10.011  0.0274  0.0164 -0.1618
19340W        W50556  17.647   3.545   8.216  0.2522  0.1930 -0.0067
19341W        W50557   7.406  10.414   8.738  0.0762 -0.1419 -0.1341
19342W        W50558  12.017  26.531  10.344 -0.0902  0.0866  0.1179
19343W        W50559   5.580  17.886   8.580 -0.1272 -0.1410 -0.1074
19344W        W50560  22.903   6.438   8.889 -0.0445 -0.1934  0.0790
19345W        W50561   6.609  12.407   9.631 -0.3173 -0.0029 -0.2430
19346W        W50562  24.043  20.072  10.542 -0.1455 -0.3510 -0.1463
19347W        W50563   5.664  21.276   9.046 -0.2667 -0.0984 -0.3730
19348W        W50564  25.110  16.417  10.119  0.1011  0.1156 -0.4713
19349W        W50565  14.683  17.071  10.496  0.0856 -0.4766  0.0173
19350W        W50566  11.640  20.284   0.897  0.1752 -0.0472 -0.3252
19351W        W50567  12.215   6.958   3.157 -0.0630 -0.0711  0.0542
19352W        W50568   5.800  11.107  10.090 -0.0999  0.2863  0.2289
19353W        W50569   3.096  13.582   7.095  0.3526  0.1517  0.1893
19354W        W50570  13.321  21.053   1.379 -0.0919 -0.2066  0.0650
19355W        W50571  15.268  26.504   0.172  0.1033  0.1343 -0.0126
19356W        W50572  16.070  21.424  10.213 -0.2038  0.4699 -0.0514
19357W        W50573  25.822  23.639   2.706  0.2963 -0.0346 -0.2547
19358W        W50574   0.279  16.276   8.235  0.1755  0.0117  0.1583
19359W        W50575   9.748  14.197  10.231  0.0785 -0.2252  0.0885
19360W        W50576  25.854  20.312   3.634  0.1393 -0.1773 -0.0419
19361W        W50577  25.701  16.493   3.690 -0.2676  0.0668  0.0784
19362W        W50578  14.824   4.214   1.910 -0.0683  0.1175  0.1736
19363W        W50579  14.126  18.340   2.052  0.3200  0.1736 -0.1505
19364W        W50580  21.563  24.073   1.197  0.0489 -0.0379 -0.2482
19365W        W50581   6.407  22.889   2.902  0.3400 -0.1919  0.4132
19366W        W50582   3.610  21.816   8.286 -0.3348 -0.3102  0.0923
19367W        W50583  10.382  14.360   0.526 -0.4019  0.0913 -0.1673
19368W        W50584  19.952   1.370   3.350 -0.0083 -0.2338  0.0325
19369W        W50585   2.017  27.200   9.496  0.1592 -0.0596 -0.0036
19370W        W50586  14.768   6.255   8.742  0.3152 -0.2650 -0.2210
19371W        W50587  22.007  24.085   2.515 -0.1134 -0.0840  0.1132
19372W        W50588  25.749  16.768   9.406 -0.1292 -0.0207 -0.1261
19373W        W50589  19.151  14.033   9.255  0.5295 -0.1887  0.1903
19374W        W50590   1.894  17.137   1.725  0.1161  0.3864  0.0819
19375W        W50591  25.756  19.398   0.487  0.4018 -0.0875 -0.1361
19376W        W50592  23.768  26.376   9.255  0.0240  0.2642  0.0027
19377W        W50593  26.678  12.055  10.321 -0.0407  0.0824  0.2334
19378W        W50594   6.029   4.525   2.601 -0.1404 -0.2597 -0.1000
19379W        W50595  21.357  18.554   3.159 -0.0187 -0.1602 -0.1978
19380W        W50596   4.425   2.921   0.660  0.0257 -0.1789  0.0706
19381W        W50597   6.371  13.568   9.110  0.3764  0.4333 -0.1816
19382W        W50598  17.909  14.738   0.145 -0.1600  0.1395  0.3335
19383W        W50599   9.942  15.080   1.109  0.0270  0.2724 -0.1054
19384W        W50600   7.055  27.562   3.001 -0.1818  0.0437 -0.0095
19385W        W50601  25.427   7.506   9.298 -0.0014  0.0882  0.1519
19386W        W50602  16.312  10.607   0.144 -0.2347 -0.0693  0.1163
19387W        W50603  27.061   4.467   1.760  0.0458  0.0472  0.0415
19388W        W50604  11.145  23.949   0.353 -0.1362  0.1884  0.1960
19389W        W50605   5.681   9.117   8.344 -0.0234  0.0279  0.0477
19390W        W50606  17.771  11.370   8.701  0.3734 -0.2786  0.0353
19391W        W50607   3.305  18.835   0.004  0.2914  0.3079  0.0566
19392W        W50608  25.079  24.346   1.717  0.2416  0.1433 -0.3589
19393W        W50609  10.693   0.067  10.268  0.2652  0.0816 -0.0098
19394W        W50610  11.221   7.059   2.906 -0.1557 -0.0043 -0.2180
19395W        W50611   4.392  21.941   1.821  0.1811  0.1660  0.1777
19396W        W50612  25.865  11.329   3.733 -0.0426  0.0030  0.0819
19397W        W50613  25.946  17.879   1.243  0.0166 -0.0719 -0.0326
19398W        W50614   6.708   1.372   9.762 -0.0973  0.0245  0.0087
19399W        W50615   3.425  10.590   8.711 -0.0543 -0.2797 -0.4562
19400W        W50616  14.249  16.735   9.729  0.0334  0.3358  0.0793
19401W        W50617  15.627  21.554   3.487 -0.1350 -0.2100  0.0610
19402W        W50618   1.021  18.738   2.448  0.2961 -0.1805  0.1486
19403W        W50619  18.182  20.275   9.357 -0.0460  0.1928 -0.1136
19404W        W50620  21.134  11.763   2.204 -0.3426  0.4338 -0.2225
19405W        W50621   5.665   1.945   1.023 -0.1801  0.1945  0.2007
19406W        W50622  16.827  23.048   1.392 -0.0737 -0.3698 -0.1205
19407W        W50623  10.342  17.243   8.241 -0.4669  0.2357  0.4116
19408W        W50624  10.947  13.275   7.499  0.1521  0.2354  0.1799
19409W        W50625  20.118  19.910   1.506  0.2877 -0.2538 -0.0392
19410W        W50626  10.984  10.231   2.898  0.0471 -0.1977 -0.1073
19411W        W50627  17.222  11.217   9.734 -0.0444  0.0563 -0.0725
19412W        W50628   7.332   8.941   0.570  0.2866 -0.1765 -0.0037
19413W        W50629  20.902  27.526   0.581 -0.2934  0.1809 -0.0220
19414W        W50630  26.026  15.959   8.116 -0.2221 -0.2646  0.3122
19415W        W50631  23.223  22.145   9.571 -0.4289 -0.3086 -0.2694
19416W        W50632  19.571  21.526   3.202  0.0127 -0.2596 -0.0782
19417W        W50633  21.720  13.208   3.111 -0.0044 -0.2919 -0.0967
19418W        W50634   6.131  16.713   8.416 -0.3726  0.1020 -0.0806
19419W        W50635   7.430   9.452   9.802 -0.1456  0.2055  0.0191
19420W        W50636  10.451  12.484   9.771  0.1217  0.0550  0.2726
19421W        W50637   2.194  27.601   2.515 -0.0868 -0.2537  0.1654
19422W        W50638   9.690  18.267   2.433 -0.0889 -0.1783 -0.0661
19423W        W50639  26.980  14.256   9.508 -0.2927  0.1084  0.0940
19424W        W50640  19.821  21.067   3.419  0.1397  0.0057  0.2060
19425W        W50641  19.906  15.383   0.823 -0.2387  0.1995 -0.2246
19426W        W50642  21.164   2.902  10.329 -0.1094 -0.1912 -0.0147
19427W        W50643  22.085  24.719   7.925  0.0225 -0.0014 -0.0886
19428W        W50644   7.321  26.226   0.928  0.0481  0.2343  0.2315
19429W        W50645  26.811  25.876   9.116  0.0227  0.1588 -0.0722
19430W        W50646   3.358  27.392   0.596  0.0450 -0.2767  0.2926
19431W        W50647   2.809  27.454   0.697 -0.1465 -0.1540 -0.3339
19432W        W50648  23.291   5.195   1.091  0.3547 -0.2686 -0.0747
19433W        W50649  23.189  13.284   9.659 -0.0453  0.2888  0.0561
19434W        W50650  15.899   4.291   7.900  0.0824  0.1080 -0.0866
19435W        W50651  11.470  18.959   0.749  0.1127 -0.2687  0.1106
19436W        W50652   9.795   9.550   9.316  0.1633 -0.0230 -0.2373
19437W        W50653  23.921  15.799   3.571  0.0599  0.2460 -0.1039
19438W        W50654  13.471   8.724   1.749  0.0581 -0.0237  0.2361
19439W        W50655  13.977   3.148   2.032  0.3829 -0.0637 -0.0771
19440W        W50656  25.575   6.411   9.700 -0.0561  0.1126 -0.4719
19441W        W50657  10.687   8.256   2.771  0.1190  0.1534 -0.0364
19442W        W50658  14.953  12.347   8.700  0.3189  0.1049 -0.2578
19443W        W50659  26.129  23.153   0.013 -0.0967  0.0955 -0.1476
19444W        W50660  22.089  15.457   1.539  0.0522  0.3464  0.1073
19445W        W50661  27.002  11.305   9.027  0.1775  0.3628  0.2277
19446W        W50662   7.539   7.656   2.442 -0.0096 -0.0937  0.2011
19447W        W50663   8.163   8.834   8.380  0.0305  0.3739  0.1999
19448W        W50664  18.670   6.854   7.620  0.1688 -0.0718  0.1333
19449W        W50665  17.919   1.382   8.529 -0.3012 -0.0052  0.2187
19450W        W50666  22.444  10.592   2.789  0.1170 -0.1156  0.1318
19451W        W50667  17.296  10.692   0.370  0.1582  0.2206 -0.1474
19452W        W50668  15.763   9.415   9.532  0.1200 -0.1683  0.1920
19453W        W50669   1.633  15.809   1.713  0.0106 -0.2653  0.2236
19454W        W50670  10.050  18.930   1.697 -0.0353  0.0232  0.2164
19455W        W50671  14.430  12.474   2.754  0.0941 -0.1081 -0.0374
19456W        W50672  18.629  24.690  10.037  0.3591  0.0577 -0.2583
19457W        W50673  21.178  17.009   8.982  0.0387  0.0754  0.2788
19458W        W50674  23.528  14.511   9.081  0.0679  0.6719  0.0873
19459W        W50675   0.333  27.170   8.868 -0.0273  0.0392 -0.0847
19460W        W50676  10.233   0.425   9.484 -0.3817  0.0892 -0.1146
19461W        W50677   6.302  12.036   1.744  0.1275  0.0561 -0.3962
19462W        W50678  11.450   3.283   9.045  0.0220  0.3810  0.1681
19463W        W50679   7.800  18.829   3.058  0.1306  0.0374  0.2965
19464W        W50680  11.019  18.404   1.334 -0.0520 -0.2380 -0.1570
19465W        W50681  19.999   5.625   8.791 -0.1142  0.1574  0.2811
19466W        W50682  23.550  25.505  10.518  0.1255 -0.0459 -0.1992
19467W        W50683  21.217  10.285   7.786  0.0774  0.0866  0.0657
19468W        W50684   6.293  16.340  10.430  0.2494 -0.0880 -0.1002
19469W        W50685   5.574  20.373   9.038  0.0280  0.0497 -0.3670
19470W        W50686  23.450  18.577   8.635  0.0242  0.0309 -0.1646
19471W        W50687  27.522  13.097   0.428 -0.0339  0.1658 -0.0277
19472W        W50688   3.881  22.090   2.762 -0.0578 -0.0863  0.0629
19473W        W50689   2.888  13.870  10.021  0.0801 -0.0988  0.0478
19474W        W50690  25.649   7.252   9.749 -0.6675  0.3578  0.3130
19475W        W50691   8.069  25.431   7.628  0.3029  0.2348  0.1681
19476W        W50692   1.811  13.542   1.412  0.1278 -0.0771 -0.0094
19477W        W50693  12.846  16.420   0.971  0.1095  0.0612  0.1952
19478W        W50694   4.187   9.146   3.337 -0.4094 -0.0794 -0.0344
19479W        W50695  27.022  20.289   9.587  0.0233  0.0612 -0.1583
19480W        W50696   7.585   7.075   1.789 -0.1373 -0.0496  0.2074
19481W        W50697  25.727  21.362   7.755  0.0768 -0.2408 -0.1663
19482W        W50698  18.725   6.327  10.000  0.4357 -0.1205 -0.1008
19483W        W50699   3.650   7.935   2.472  0.2480 -0.1075  0.0935
19484W        W50700   4.779   7.484   1.352 -0.0442 -0.0346 -0.0450
19485W        W50701  20.331   6.120   6.775  0.4861  0.0182  0.2312
19486W        W50702  18.223  23.071   7.944 -0.0490  0.0401  0.1577
19487W        W50703  18.841   0.074   2.426  0.4221  0.0949 -0.0206
19488W        W50704  26.673  22.429   2.478 -0.1965  0.3606 -0.1213
19489W        W50705  17.220   4.148   8.615 -0.0565  0.0733 -0.1304
19490W        W50706  15.877  18.199   9.323  0.0662 -0.4034  0.0510
19491W        W50707  10.398  10.790   0.329 -0.0399 -0.1434  0.1300
19492W        W50708  16.682  15.216  10.102  0.4042 -0.1316  0.3725
19493W        W50709  11.945  18.381   8.733  0.1048 -0.0466  0.0907
19494W        W50710  16.018  15.768   0.308  0.1640  0.2043  0.3437
19495W        W50711   8.054   9.891   2.803  0.1348 -0.1600 -0.2062
19496W        W50712   7.958  26.437   1.694 -0.2713  0.0343  0.0304
19497W        W50713  12.257  14.741   9.256  0.4150  0.0822 -0.2261
19498W        W50714  21.030  22.578   0.431  0.1874  0.0765 -0.2947
19499W        W50715  12.837   6.273  10.182 -0.4355 -0.0505  0.1531
19500W        W50716   6.521  24.704  10.465 -0.1396  0.1579  0.2171
19501W        W50717  14.002  13.752   8.122 -0.2582  0.1812  0.0478
19502W        W50718   9.385  19.130   8.202  0.0696  0.1310  0.0939
19503W        W50719  10.988  14.166   1.960  0.3284  0.0147 -0.0587
19504W        W50720  27.176  15.714   8.235 -0.0922 -0.0487  0.0714
19505W        W50721  19.929   8.890   3.664  0.1438 -0.0914  0.1053
19506W        W50722   4.080   2.800  10.069  0.1047 -0.1541 -0.0697
19507W        W50723  16.899  12.894  10.080 -0.0085  0.0454  0.0161
19508W        W50724   9.731   0.142   1.498 -0.0644  0.0173 -0.0810
19509W        W50725  23.806   3.268   2.637  0.1256 -0.2650  0.1251
19510W        W50726  13.414   4.426   2.087 -0.1180  0.0699  0.1415
19511W        W50727  10.807   4.704   0.086 -0.0151  0.4568 -0.2529
19512W        W50728  21.233   3.706   9.819 -0.0573  0.2306  0.2174
19513W        W50729  24.783  19.318   3.047 -0.0619  0.0479 -0.1503
19514W        W50730  10.149  16.673   2.016 -0.1798  0.0155  0.1038
19515W        W50731  20.088  15.240   2.331  0.2519 -0.0917  0.0027
19516W        W50732  16.531  10.628   2.068 -0.1499  0.0835  0.0749
19517W        W50733   1.643  25.652   9.406  0.0958 -0.1687 -0.1389
19518W        W50734   2.989  23.009   9.780  0.1856  0.2576  0.0095
19519W        W50735  22.276   2.569   1.938  0.0762  0.1767  0.1841
19520W        W50736  15.216  12.312   0.819  0.0792  0.0594 -0.0494
19521W        W50737  17.069  24.413   8.687  0.1782  0.1512 -0.0467
19522W        W50738  23.184   7.193   9.232  0.1502 -0.0419 -0.0390
19523W        W50739  23.150  12.576  10.112  0.4010 -0.0498  0.3299
19524W        W50740   5.700   1.836   8.508 -0.1377  0.3509 -0.0173
19525W        W50741  10.437  12.076   0.024 -0.0434 -0.1028  0.1418
19526W        W50742   0.063   1.958   1.535 -0.2248 -0.0991  0.0184
19527W        W50743  15.113  16.168   9.402  0.3373  0.2242  0.1361
19528W        W50744  10.403   6.792   2.436 -0.2669 -0.1248  0.0510
19529W        W50745   5.740   1.128   8.987 -0.1611 -0.0386  0.0255
19530W        W50746   3.224  19.067   8.967 -0.2859 -0.3639  0.0531
19531W        W50747  27.168  23.531   8.411  0.0353  0.2196  0.0662
19532W        W50748   0.460  21.879  10.367 -0.0393 -0.2448  0.0033
19533W        W50749   6.783  16.695   9.900 -0.0744 -0.2673  0.2885
19534W        W50750  14.429  14.635   2.502  0.1972 -0.2423  0.0250
19535W        W50751  24.503   2.728   0.568 -0.1014 -0.1856  0.1245
19536W        W50752   9.005   7.134  10.163 -0.2030 -0.2497 -0.0794
19537W        W50753  12.233  12.615   2.464 -0.2634 -0.0059 -0.0761
19538W        W50754   0.718  11.974   8.590  0.1916 -0.2009 -0.3458
19539W        W50755   8.168   4.912   9.071 -0.2589  0.1306 -0.2848
19540W        W50756  19.179  11.959   1.923 -0.0136 -0.0393  0.3021
19541W        W50757  24.620  24.647   9.753 -0.1071 -0.0133  0.0260
19542W        W50758  25.811  20.723   1.340 -0.0268  0.0580  0.2541
19543W        W50759   5.691  20.636   0.528  0.4134 -0.0573 -0.1938
19544W        W50760   3.112   6.250   8.676 -0.1585 -0.2785  0.2839
19545W        W50761  25.083   4.469   0.775  0.0399 -0.0552  0.1347
19546W        W50762  13.303   2.142   9.083  0.0265 -0.2497  0.0304
19547W        W50763  17.018  21.161   2.744  0.0590 -0.2286 -0.1703
19548W        W50764  24.147  19.664   9.823 -0.2545  0.0295  0.3168
19549W        W50765  23.857   8.164   1.532  0.1419  0.2224 -0.3212
19550W        W50766  10.337   3.884   9.784  0.4200 -0.3907 -0.0501
19551W        W50767  13.609  19.397   2.836 -0.1730 -0.2097 -0.0786
19552W        W50768  22.445   4.749   0.927 -0.1832  0.2109 -0.1501
19553W        W50769   1.385  13.240   9.581  0.2591  0.1853  0.0009
19554W        W50770  22.160  21.756   1.545 -0.1665 -0.0625  0.0649
19555W        W50771  13.095   6.905   9.979  0.0730 -0.0814  0.0386
19556W        W50772   6.195   5.070  10.466  0.5108 -0.0920 -0.2394
19557W        W50773  19.051   6.227   6.979  0.1264  0.1197 -0.1042
19558W        W50774  13.064   3.428   7.887  0.0447  0.1676  0.3061
19559W        W50775   7.098  26.711   1.164  0.1524  0.1190  0.1950
19560W        W50776  26.400  27.318   2.559 -0.1179  0.1423 -0.0204
19561W        W50777  24.996   1.276   0.376  0.2713 -0.2005  0.0462
19562W        W50778  18.159  22.760   3.610 -0.1701 -0.0642 -0.1474
19563W        W50779  23.086  15.574   9.919 -0.1788  0.1887  0.0076
19564W        W50780  17.745  15.831   8.804  0.1004 -0.0256 -0.0170
19565W        W50781  17.705  16.730   1.133 -0.1117 -0.1043  0.1155
19566W        W50782  13.333   9.030   8.712  0.0315 -0.1152  0.0113
19567W        W50783   5.631  13.222   1.977 -0.2403 -0.0319 -0.1672
19568W        W50784  27.549  19.540   2.367 -0.2708  0.1495  0.2601
19569W        W50785  19.905  17.707   0.992 -0.0191 -0.0395  0.3390
19570W        W50786  11.569  20.137   8.936 -0.0103  0.0443 -0.0003
19571W        W50787   3.751  27.200   9.832  0.0559  0.3971  0.1449
19572W        W50788   7.549  24.241   0.158  0.0763  0.0081  0.1125
19573W        W50789  22.591  24.834   9.249  0.1677 -0.1334 -0.0493
19574W        W50790   8.026   3.640   1.354  0.2542  0.0282 -0.1224
19575W        W50791  17.567  11.348   3.383 -0.1432  0.0028 -0.0699
19576W        W50792   8.682  10.902   1.008  0.1012 -0.3380 -0.0975
19577W        W50793  26.531   3.120   9.778  0.0296  0.3612 -0.0531
19578W        W50794  13.203   8.002   0.726 -0.2500  0.3122 -0.2917
19579W        W50795   6.048  27.559   7.564 -0.2560 -0.1010  0.0311
19580W        W50796   8.604   1.716   7.288  0.1387  0.2140 -0.0129
19581W        W50797  24.929   9.766   3.082 -0.1709 -0.0528  0.0475
19582W        W50798   4.569  16.304  10.110  0.0864 -0.2476  0.1561
19583W        W50799   9.124   7.409   9.087  0.2591 -0.0932 -0.1985
19584W        W50800  10.240  15.715  10.346 -0.3639  0.0895 -0.1845
19585W        W50801  10.567  11.404   9.579  0.2644 -0.2114  0.3937
19586W        W50802   5.373   2.778   2.090  0.0622  0.2080 -0.0353
19587W        W50803  12.444   4.615   2.725 -0.4726  0.0990  0.1655
19588W        W50804  19.806  14.963   1.121  0.0604 -0.0349 -0.0712
19589W        W50805  24.221   0.496   8.676 -0.0453 -0.2699  0.0563
19590W        W50806   5.927  18.692   9.893 -0.0256 -0.0136 -0.0627
19591W        W50807  22.862   2.467   9.201 -0.1035  0.0176 -0.0295
19592W        W50808  15.253   5.579   1.240 -0.3305 -0.2028 -0.0452
19593W        W50809  12.499  14.770  10.321  0.1186 -0.0261 -0.1397
19594W        W50810  18.257  11.173   2.182 -0.0285 -0.0717  0.2439
19595W        W50811  21.656  24.158   8.441  0.0124  0.2423 -0.1116
19596W        W50812   4.801  19.957   0.579 -0.0792  0.0481  0.0212
19597W        W50813  22.429  22.725   2.358  0.1699  0.1844 -0.2665
19598W        W50814   8.328   0.650   7.978  0.4826  0.1953 -0.0719
19599W        W50815   9.886   6.803   7.991 -0.1274  0.1685  0.1775
19600W        W50816   1.923  18.505  10.541  0.0151  0.4360 -0.0186
19601W        W50817  18.347  26.900   9.482  0.2645  0.0577  0.1875
19602W        W50818   1.113  19.038   7.737  0.2078  0.0524 -0.4178
19603W        W50819  11.527  19.896   2.962 -0.0759  0.1187 -0.1652
19604W        W50820  26.881  23.568   9.931 -0.3110  0.0802  0.2912
19605W        W50821   6.063  21.657   3.270  0.0324  0.0168 -0.0413
19606W        W50822  20.247  24.936   9.122  0.1699  0.3849  0.0580
19607W        W50823   7.674   7.944   3.130  0.2632  0.2592 -0.1553
19608W        W50824  26.485  16.703   2.035 -0.4251  0.0130  0.1124
19609W        W50825  11.382   3.763   9.039 -0.1224 -0.0591 -0.0118
19610W        W50826  25.397  27.003   0.626 -0.1374 -0.0047 -0.0955
19611W        W50827   3.864   1.283   9.275  0.0280  0.1735 -0.0673
19612W        W50828  13.753  14.458   8.776  0.2176  0.3171 -0.0682
19613W        W50829  25.523  20.548   0.038  0.2215  0.2299  0.2158
19614W        W50830   3.355  13.142   1.518  0.2709 -0.3144  0.1187
19615W        W50831   4.213  14.061   1.813 -0.1237  0.4909  0.0159
19616W        W50832   1.966   4.381   9.619 -0.0365  0.1180  0.0243
19617W        W50833  26.400  14.276   3.526  0.0194 -0.0699  0.3071
19618W        W50834   3.518  18.376   2.867  0.0595 -0.1607 -0.0021
19619W        W50835   2.514  12.282   7.979  0.1234  0.1789  0.0291
19620W        W50836   2.320  21.747   1.996 -0.0996 -0.0080  0.2384
19621W        W50837  11.635  26.839   3.056 -0.1352 -0.2430  0.2376
19622W        W50838  24.353   2.792   2.097 -0.1019  0.0704 -0.0714
19623W        W50839   3.447  22.122   1.703 -0.0128 -0.0946 -0.6466
19624W        W50840  15.309  23.848   9.232  0.3891 -0.1089 -0.0207
19625W        W50841   3.678   4.853   2.793  0.1518  0.0312  0.1101
19626W        W50842  27.257  18.724   3.522  0.2518  0.0820  0.1840
19627W        W50843  20.112   9.919   3.117  0.2602 -0.0303 -0.1602
19628W        W50844  24.737   9.295   9.798 -0.1870 -0.0595  0.0802
19629W        W50845   7.658   9.535   9.258  0.4349  0.2679 -0.1243
19630W        W50846  14.071   7.027   9.517 -0.0683 -0.0814  0.1776
19631W        W50847  18.685  18.933   8.122 -0.0753  0.3055 -0.2279
19632W        W50848   6.913  10.580   8.603 -0.2026 -0.2564 -0.0687
19633W        W50849  27.309  13.857   8.863  0.2593  0.1375  0.0980
19634W        W50850  18.999  15.209   0.537  0.1172  0.2836 -0.0776
19635W        W50851   0.585  16.727   9.483 -0.2144 -0.3245  0.1083
19636W        W50852  17.427  17.343   1.013 -0.0729  0.0065 -0.0950
19637W        W50853  26.232  17.159   9.876  0.1172 -0.3006 -0.0571
19638W        W50854  11.826   3.045   9.416 -0.1860 -0.0803 -0.0604
19639W        W50855   8.292  27.152   3.921 -0.1568 -0.0687 -0.2752
19640W        W50856  17.376  24.485   3.197 -0.1432 -0.1130 -0.0350
19641W        W50857  24.259  22.331   1.706  0.1522 -0.2120 -0.0606
19642W        W50858   5.420   4.256   0.830  0.3654  0.1504  0.0368
19643W        W50859  16.419  14.863   0.577 -0.1619  0.1707  0.0157
19644W        W50860   3.700   6.385   3.362  0.0649  0.0451  0.0952
19645W        W50861  12.384   6.551   1.439  0.0641 -0.0802 -0.2528
19646W        W50862  16.859  16.656   0.048 -0.1625  0.0443  0.2393
19647W        W50863   5.433  22.842  10.096  0.2071  0.0846 -0.2150
19648W        W50864  11.317  25.328   9.142 -0.2710 -0.0455  0.0677
19649W        W50865  13.698   1.404   0.076  0.3035 -0.0583 -0.4842
19650W        W50866  16.526  18.954   1.861 -0.0592  0.2523  0.1809
19651W        W50867   3.105   4.000   8.537 -0.1005 -0.0711 -0.0680
19652W        W50868  13.096   3.616   2.973  0.2919  0.1977  0.3441
19653W        W50869   6.107  17.872   9.255  0.2467  0.0370 -0.1200
19654W        W50870  18.765  25.967   1.220  0.0982  0.1247 -0.0819
19655W        W50871   5.994  18.372   1.305 -0.2802  0.0762  0.2149
19656W        W50872  11.728   5.773   0.326 -0.3646  0.0218 -0.0972
19657W        W50873   5.205  16.741   7.835 -0.0747  0.3196 -0.0833
19658W        W50874   7.581   0.807   1.398  0.0935 -0.1578  0.0445
19659W        W50875  27.293  16.381   1.646  0.3129  0.1438 -0.0470
19660W        W50876  15.144  15.788   1.280  0.2991 -0.2779 -0.2307
19661W        W50877   4.286  15.212   1.030  0.1086 -0.1554  0.0270
19662W        W50878   2.399  24.735   0.704 -0.1608  0.2295  0.3257
19663W        W50879   5.550   4.166   8.638 -0.2192  0.0606  0.0555
19664W        W50880  21.781   4.973   1.657  0.2776  0.1252 -0.1434
19665W        W50881   8.832  24.292  10.436  0.0547 -0.2819 -0.1503
19666W        W50882  17.072  26.650   1.701  0.3590  0.1599 -0.1172
19667W        W50883   2.140   0.210   0.001  0.2939 -0.2061  0.1663
19668W        W50884  12.050  14.990   3.075 -0.1157  0.1699 -0.0812
19669W        W50885   8.298   4.235   7.319 -0.1057  0.2493 -0.1568
19670W        W50886  18.300   5.483   2.052 -0.1778 -0.1031 -0.1991
19671W        W50887  24.285  26.186   1.545  0.0222  0.3814  0.2464
19672W        W50888  16.100   0.977   0.175 -0.0137  0.0029 -0.1250
19673W        W50889   8.114  10.970   8.575 -0.1664  0.2280 -0.1409
19674W        W50890   1.914  22.983   3.338  0.1355 -0.0871  0.0489
19675W        W50891   7.863   4.710   0.392  0.2641  0.0029  0.0380
19676W        W50892  19.171  10.079   1.812  0.2565 -0.2285  0.0436
19677W        W50893   4.690  23.212   0.182 -0.1950 -0.0199  0.0013
19678W        W50894   2.885   3.198   0.947  0.0377  0.2294 -0.2969
19679W        W50895   3.146  23.797   0.082 -0.2993 -0.3099 -0.0636
19680W        W50896   3.928   9.702  10.022  0.1892  0.1697 -0.1760
19681W        W50897  18.765   0.182   0.337 -0.3011 -0.0710 -0.1912
19682W        W50898  10.500  18.052   2.551  0.0995  0.3047 -0.1518
19683W        W50899  19.573   7.221   7.260  0.0330  0.0266 -0.0904
19684W        W50900   6.037  12.581   8.878 -0.2303 -0.0093 -0.0341
19685W        W50901  10.971   8.172   1.556  0.0182 -0.6651 -0.0433
19686W        W50902  12.120   8.497   0.574  0.1486  0.1356  0.1509
19687W        W50903   8.560  11.819   7.606 -0.2095  0.1922  0.3404
19688W        W50904   8.895   1.292   2.034 -0.1815 -0.1998  0.1908
19689W        W50905  14.249  23.305   8.354 -0.4489  0.2521  0.0871
19690W        W50906   4.440  15.243   2.056  0.1709 -0.2298  0.0525
19691W        W50907  27.174  21.359   7.722  0.0160 -0.2083 -0.0391
19692W        W50908  24.609  13.185   8.556  0.0923  0.2041  0.2543
19693W        W50909  13.232   4.426   1.470 -0.0960  0.1550  0.1704
19694W        W50910  22.964   1.914   3.796  0.1656  0.0514 -0.0665
19695W        W50911  17.843  15.609   0.993 -0.0800 -0.0181  0.1479
19696W        W50912  10.922  12.955   2.686  0.2327  0.1392  0.2579
19697W        W50913  14.173   9.711   2.413  0.1507  0.1045 -0.0475
19698W        W50914   6.815   1.565   2.961  0.0305  0.3316 -0.1022
19699W        W50915  14.938   3.376   9.812 -0.2542  0.1868  0.0443
19700W        W50916   5.404   2.589   8.813  0.1173  0.0858 -0.3503
19701W        W50917   1.082  24.197   8.299  0.0755  0.0039  0.0956
19702W        W50918  26.485  18.431  10.373  0.1976  0.0672  0.3916
19703W        W50919  12.529  12.907   0.891 -0.1092 -0.0333  0.1463
19704W        W50920  12.198   1.627   3.650 -0.0261  0.2459 -0.0641
19705W        W50921  16.176  20.718   9.628 -0.0219  0.0598 -0.1431
19706W        W50922  17.725   3.071   7.719  0.0138  0.0924  0.2538
19707W        W50923  23.230   0.299   2.617 -0.3045 -0.0854  0.2631
19708W        W50924   9.475  23.749   9.215 -0.2906 -0.1903  0.2781
19709W        W50925  21.021   8.894   9.532 -0.0037  0.1633  0.2017
19710W        W50926   2.495  14.440   2.607  0.0253 -0.1227  0.0757
19711W        W50927  10.545   5.640   1.293  0.0853 -0.2805 -0.2882
19712W        W50928  25.460  14.409   1.196 -0.0331 -0.1825 -0.3766
19713W        W50929   7.508   7.168   8.982  0.0026 -0.1046  0.2285
19714W        W50930   6.073   9.655  10.480  0.0169  0.4046 -0.2031
19715W        W50931  24.367   2.722   8.259 -0.0390  0.1110 -0.1446
19716W        W50932  25.660  12.742   0.817  0.1600 -0.1509 -0.1540
19717W        W50933   2.586  21.201   8.077 -0.0317 -0.1099 -0.4691
19718W        W50934  14.361  23.214   0.357  0.0608 -0.2233 -0.1027
19719W        W50935  26.204  27.345   1.175 -0.1866 -0.1270 -0.0867
19720W        W50936  19.322  20.170   9.271 -0.0615 -0.1680 -0.2383
19721W        W50937  27.396   4.140   1.565 -0.1613  0.1304 -0.1288
19722W        W50938  24.066  26.210   8.239  0.4010  0.0306  0.0109
19723W        W50939   3.022   2.457   9.112  0.2060 -0.2060  0.0224
19724W        W50940  24.534   8.951   8.506  0.1538 -0.1775  0.2566
19725W        W50941  19.109  22.010   9.094  0.1704  0.1259  0.1293
19726W        W50942  18.002   7.512   7.125 -0.0123 -0.0596 -0.0634
19727W        W50943   4.755  10.327  10.334 -0.0054 -0.1506 -0.1691
19728W        W50944  10.728  20.719   2.250 -0.5580 -0.0909  0.1317
19729W        W50945  25.443   1.240   1.074 -0.0631 -0.3193 -0.0718
19730W        W50946  20.495   1.092   1.286  0.1960  0.1736 -0.3612
19731W        W50947   8.735   7.506   3.964  0.0107  0.0734 -0.0635
19732W        W50948   2.944  15.150   8.117 -0.2131  0.3764 -0.0075
19733W        W50949  19.249   4.004   7.581 -0.2554  0.0290  0.1478
19734W        W50950  18.186  25.773   8.788 -0.1186  0.0727 -0.4185
19735W        W50951  17.905  14.189   7.545 -0.2030  0.3505  0.2493
19736W        W50952  21.778  23.266   3.000 -0.1387 -0.1268  0.2177
19737W        W50953  21.396  10.900   9.257  0.1203 -0.0923  0.2698
19738W        W50954  25.337  24.791  10.433 -0.1493 -0.0080 -0.2150
19739W        W50955  18.966   6.050   0.342 -0.1625 -0.1928  0.0671
19740W        W50956   5.756  24.185   0.652  0.0331  0.1873  0.0532
19741W        W50957  21.801   3.742   1.252  0.1957  0.0489 -0.0227
19742W        W50958  17.809  10.172   9.058  0.0517  0.1790  0.0982
19743W        W50959   6.481  23.479   9.990 -0.4792 -0.0589 -0.1630
19744W        W50960   3.988  10.035   8.355 -0.1357  0.1929  0.1855
19745W        W50961  20.057  12.548   9.722 -0.2668  0.2162 -0.0131
19746W        W50962   0.021   1.616   8.753 -0.0209 -0.0213 -0.1344
19747W        W50963   1.747   2.320   0.329  0.0053 -0.0770 -0.1260
19748W        W50964  24.514  18.186   8.043  0.2239 -0.1204 -0.3560
19749W        W50965  21.008  10.299   7.360 -0.0747  0.0182  0.0933
19750W        W50966   9.263  13.111   9.420  0.2215 -0.0091  0.0120
19751W        W50967  13.475  14.435   2.004  0.1204 -0.1098 -0.0423
19752W        W50968   0.175   4.350   9.913  0.0371 -0.0311  0.0974
19753W        W50969  23.405  16.495   0.898 -0.0055  0.0555 -0.0311
19754W        W50970   8.220   7.547   1.020 -0.2974  0.1120  0.1223
19755W        W50971   4.223   9.096   9.178 -0.4380  0.1433 -0.2601
19756W        W50972  16.058  13.546  10.534 -0.3827  0.1290  0.0152
19757W        W50973  25.872   3.370   8.372 -0.0579  0.1160  0.0978
19758W        W50974  22.278  20.808   1.625 -0.0255  0.0993 -0.0709
19759W        W50975  27.101   9.188   1.314 -0.1072  0.2051  0.1651
19760W        W50976   4.103   0.747   2.380 -0.0708  0.1389 -0.1818
19761W        W50977   1.318  14.668   9.549 -0.0333 -0.0532 -0.1358
19762W        W50978  26.569  16.377   7.543  0.0341  0.2815 -0.1006
19763W        W50979  13.781   5.632   8.480 -0.2622 -0.4667 -0.1251
19764W        W50980   8.474   5.077   1.215 -0.1509  0.2402  0.0561
19765W        W50981   5.298  12.404   8.266  0.0849 -0.2758  0.0338
19766W        W50982  12.591  15.800   3.424 -0.0974  0.2255 -0.0594
19767W        W50983  14.247  22.004   0.066  0.3605 -0.0035 -0.2204
19768W        W50984  24.518  12.201   3.271 -0.4609 -0.0375 -0.2363
19769W        W50985  16.676   0.426   2.081 -0.2212 -0.1535 -0.0866
19770W        W50986   4.843   3.139   8.156  0.2634 -0.0112  0.1148
19771W        W50987  12.336  18.704   1.748 -0.0858  0.1059 -0.1330
19772W        W50988   7.985  26.765   0.669  0.0970 -0.0293  0.0508
19773W        W50989   6.658   3.519   0.488  0.0582  0.0138  0.3962
19774W        W50990  27.621  24.680   1.270  0.0203 -0.1811 -0.0481
19775W        W50991  13.796   7.600   2.341 -0.1406 -0.2252 -0.0527
19776W        W50992  26.748  21.065   0.646 -0.2475 -0.0393 -0.1608
19777W        W50993  25.579  23.083   8.697  0.2438 -0.1440  0.1544
19778W        W50994  22.299   1.419   3.213  0.0465 -0.1377  0.1244
19779W        W50995   2.636  19.550   0.266 -0.3389  0.0799  0.0848
19780W        W50996   3.267   5.053  10.474  0.0956 -0.2161 -0.1986
19781W        W50997   7.273  24.533   2.351  0.1811 -0.2559 -0.2557
19782W        W50998  21.776   4.290   9.161  0.1098 -0.0333  0.0372
19783W        W50999  21.898   9.659   7.986  0.2797  0.2159 -0.1235
19784W        W51000  11.738  11.307   2.644  0.1357 -0.1064  0.2654
19785W        W51001  25.005  25.432   7.243  0.1315 -0.1490  0.1313
19786W        W51002  15.224  21.023   1.570 -0.1445 -0.1978  0.0666
19787W        W51003  17.974   3.974   7.592 -0.1429  0.1102  0.0683
19788W        W51004  14.460   6.829   9.940 -0.0222  0.5145  0.0137
19789W        W51005   9.081   4.017  10.496  0.2559  0.2209  0.1485
19790W        W51006  10.923   5.240   8.584  0.2370 -0.0965 -0.1280
19791W        W51007   1.287   9.142   3.419  0.2889  0.0675  0.1291
19792W        W51008   6.692  22.919   1.162  0.1119 -0.2797 -0.0174
19793W        W51009  22.269  14.684   1.338  0.0158 -0.1726  0.0860
19794W        W51010  15.219  11.153   1.572  0.1267  0.1173 -0.1860
19795W        W51011  11.764  25.767   3.241 -0.0712  0.3521  0.0887
19796W        W51012  20.304  14.700   2.963 -0.1225  0.0995  0.0502
19797W        W51013  21.151   5.103   7.961  0.1501  0.0224 -0.0838
19798W        W51014  19.157  15.971   9.117 -0.0197  0.1274  0.0288
19799W        W51015  15.308  18.795  10.241  0.0348  0.1909 -0.0507
19800W        W51016   7.905  22.488   2.673  0.0377  0.0572  0.0191
19801W        W51017  20.406   6.843   1.198 -0.0181 -0.0361  0.0514
19802W        W51018   3.481  20.352   3.261 -0.1415 -0.2714 -0.1504
19803W        W51019   5.335  23.957   1.835 -0.0799 -0.3011  0.1249
19804W        W51020   7.728   3.335   9.476  0.0880 -0.0967  0.0683
19805W        W51021  14.205  20.903   0.856 -0.2124 -0.1846 -0.0111
19806W        W51022  25.556  21.135   1.348 -0.5259 -0.1728 -0.0775
19807W        W51023  13.095  24.999   3.191 -0.2079 -0.1239 -0.0937
19808W        W51024  23.881  16.748   2.029  0.0288 -0.2425 -0.1090
19809W        W51025  20.906   0.013   2.043  0.1602 -0.3199  0.1322
19810W        W51026  25.992  14.574   0.423 -0.1311 -0.1164 -0.2567
19811W        W51027  11.649   1.703   2.561  0.2916  0.1604  0.2070
19812W        W51028  24.923   1.441   9.618 -0.0205  0.1836  0.1845
19813W        W51029  22.840  13.354   1.777  0.3185 -0.1533  0.0260
19814W        W51030  24.544  16.559   1.303 -0.3089  0.1953 -0.0926
19815W        W51031  16.911  16.110   8.758  0.2277 -0.1139  0.2609
19816W        W51032  18.125  13.456   3.050 -0.2319 -0.0639  0.4095
19817W        W51033  20.890  20.991   8.727 -0.0139  0.2710  0.0916
19818W        W51034   6.335   5.528  10.096  0.1312 -0.0279  0.1199
19819W        W51035  13.170  23.568   9.171  0.1294  0.0422  0.0789
19820W        W51036   0.621  20.579   1.072  0.0392  0.0827 -0.1757
19821W        W51037   5.430  12.201   0.601 -0.0851 -0.1113 -0.0962
19822W        W51038  12.368  19.466   1.206  0.1452  0.1337 -0.1947
19823W        W51039  17.939   9.902   7.904  0.0018 -0.1290  0.1386
19824W        W51040  12.156   4.823   9.677 -0.1498  0.1508  0.1097
19825W        W51041  19.242  15.805   1.235  0.2028 -0.0066  0.0404
19826W        W51042  19.866   7.934   8.154 -0.0566 -0.2037 -0.0020
19827W        W51043   1.056  10.863   2.460  0.1052 -0.0699  0.0478
19828W        W51044  23.372  16.629   9.269 -0.0560 -0.0130 -0.1101
19829W        W51045   9.968  13.180   0.986  0.0922  0.1252 -0.1181
19830W        W51046   8.037   5.946  10.235 -0.3388 -0.0532 -0.2561
19831W        W51047  14.375   2.554   9.508 -0.0062  0.2390  0.1522
19832W        W51048  23.582   2.491   1.784 -0.0423  0.1254  0.3201
19833W        W51049   5.928  14.406   9.034  0.3116  0.1747 -0.0846
19834W        W51050  11.214  19.604   2.718  0.1272 -0.1017 -0.4199
19835W        W51051   8.616   9.324  10.495  0.0965  0.4273  0.1667
19836W        W51052   2.607  18.518   1.215 -0.0684 -0.1239  0.2955
19837W        W51053  23.800  25.621   8.802  0.1547 -0.0715  0.1764
19838W        W51054  17.274  11.408   0.472 -0.0857  0.3834 -0.1671
19839W        W51055  25.476  25.789  10.254 -0.0868  0.0220 -0.0945
19840W        W51056  14.687  14.994   2.779 -0.2427  0.0613 -0.3296
19841W        W51057  17.358   2.342   0.790  0.1491 -0.5379  0.1196
19842W        W51058  17.014  18.890  10.355 -0.0506  0.0351 -0.1849
19843W        W51059  26.811  27.562   8.154  0.0090  0.3476 -0.2767
19844W        W51060  15.172  15.187   2.678 -0.0723 -0.0043  0.2232
19845W        W51061  13.708  18.169   1.712  0.2093 -0.0921  0.0771
19846W        W51062  15.757  23.764   7.667  0.1487  0.0569  0.0629
19847W        W51063   2.152   2.043   0.423 -0.0925  0.0523  0.0187
19848W        W51064  24.267  27.288   2.303 -0.0993 -0.5323 -0.0700
19849W        W51065   7.191  15.808   0.779 -0.2525  0.0060  0.0769
19850W        W51066  22.069  14.047   0.681  0.3291  0.1332  0.1250
19851W        W51067   4.829  24.321   7.588  0.0719 -0.0549  0.1462
19852W        W51068  16.562  13.391   9.744  0.1930  0.4121 -0.2671
19853W        W51069   1.233  10.038   8.762  0.1897 -0.2611  0.0700
19854W        W51070   3.527  21.216   2.226  0.1886 -0.0710  0.2924
19855W        W51071  19.102   4.593   0.028 -0.0052 -0.0004 -0.1377
19856W        W51072  27.471  21.999   3.223 -0.0461 -0.2424 -0.3634
19857W        W51073   4.784  25.443   9.312 -0.1545 -0.0896 -0.0781
19858W        W51074  26.073  20.411   7.594 -0.3097  0.0453 -0.2883
19859W        W51075   2.521  23.933   2.233  0.1054  0.1130 -0.0255
19860W        W51076  27.347   0.561   0.140  0.1137 -0.1711  0.1109
19861W        W51077   3.416  17.752   7.497  0.1448 -0.0638 -0.0206
19862W        W51078  26.392  25.286   2.117  0.1565  0.1190 -0.0183
19863W        W51079  14.208  19.957   8.086  0.2304 -0.5674  0.1459
19864W        W51080  26.886  12.956   2.277  0.2644  0.2639 -0.3050
19865W        W51081  13.776   3.822   3.405  0.3436  0.0176  0.0020
19866W        W51082  11.851   4.439   8.669  0.1415 -0.0906 -0.2477
19867W        W51083  26.931  20.908   1.790  0.3062  0.1745  0.0901
19868W        W51084  25.558   4.861   0.141  0.2611 -0.0842 -0.0712
19869W        W51085  13.555  23.907   1.070  0.0525  0.0941  0.1094
19870W        W51086  11.749   2.133   1.617 -0.0251 -0.0339 -0.1003
19871W        W51087  27.614  16.522  10.152  0.4078 -0.0854  0.2236
19872W        W51088  15.157  14.931   7.656  0.1538 -0.1453  0.0057
19873W        W51089  19.085   4.463   1.321 -0.2141  0.0033 -0.0686
19874W        W51090   9.043  15.246   8.801 -0.1982  0.0912 -0.2840
19875W        W51091   6.334   0.343  10.412 -0.1972  0.1896  0.0728
19876W        W51092   6.291   7.357   1.711 -0.1861  0.2852  0.0433
19877W        W51093   6.979  17.539   9.064 -0.0161 -0.1139  0.0651
19878W        W51094  26.287   0.904   3.658 -0.2097  0.3286 -0.2496
19879W        W51095  13.160   3.158   1.674  0.0260 -0.1584 -0.1965
19880W        W51096  17.396   2.769   8.681  0.2882 -0.0804  0.0595
19881W        W51097  17.964   8.184   1.709  0.0951 -0.0317  0.0886
19882W        W51098   7.314   6.460  10.061 -0.0975 -0.1560 -0.1600
19883W        W51099  20.856   6.282   9.591  0.1286  0.0669 -0.0671
19884W        W51100  21.321   8.092   2.403 -0.0351  0.0631 -0.4341
19885W        W51101   7.026   5.047   0.525 -0.1965  0.1569 -0.1012
19886W        W51102  23.104  22.190   9.030  0.0963  0.1572  0.2060
19887W        W51103   7.611  16.606   0.490  0.2110 -0.2928  0.2430
19888W        W51104  15.414   5.216   1.643  0.1680  0.2707 -0.0706
19889W        W51105  23.636   4.703   2.821  0.2147  0.0702  0.1062
19890W        W51106   5.994  17.353   7.087 -0.2946  0.3938  0.0305
19891W        W51107   0.631  24.294   2.037  0.2250  0.3377 -0.0679
19892W        W51108  17.734  21.203   2.191  0.3648 -0.1934 -0.0693
19893W        W51109  24.275   5.923   3.753  0.2195  0.2040  0.1888
19894W        W51110  19.115  14.628   2.656 -0.1010 -0.0717 -0.1712
19895W        W51111  17.422  11.423   2.197 -0.1547  0.0515 -0.3357
19896W        W51112  11.294   2.665   7.952  0.5638  0.2864 -0.0509
19897W        W51113   9.011  10.527   1.585  0.2454  0.1023 -0.2235
19898W        W51114  18.792  19.257  10.079 -0.2159 -0.0794 -0.2854
19899W        W51115  12.742  25.328   1.548  0.0931 -0.2409 -0.2632
19900W        W51116  27.274  16.936   9.224 -0.0388 -0.0247  0.0524
19901W        W51117   0.231  17.320   9.176 -0.5585  0.2330  0.0482
19902W        W51118   0.580   1.208   3.305 -0.3384  0.0032  0.0543
19903W        W51119  17.144   6.575  10.407 -0.0137 -0.2284 -0.0827
19904W        W51120   0.835   4.919   8.079 -0.1841  0.0286 -0.1718
19905W        W51121   6.374  15.321   9.138 -0.0561 -0.0217 -0.1176
19906W        W51122  24.422  26.552   1.854  0.1107 -0.2927 -0.0308
19907W        W51123  20.704  26.184   2.788  0.0630 -0.0480 -0.0583
19908W        W51124   0.421  18.693   0.062 -0.1350  0.4296  0.0446
19909W        W51125  27.451  18.295   2.420 -0.0620  0.1114 -0.1361
19910W        W51126  17.185   3.216   7.374  0.0702  0.1571  0.1929
19911W        W51127  11.037  11.263   3.327  0.2620  0.0915  0.0702
19912W        W51128  12.087  11.649   8.279  0.4827 -0.0119  0.1318
19913W        W51129   7.044  11.756   1.868 -0.0915  0.1651  0.0593
19914W        W51130  21.149  13.683   1.001 -0.0276  0.1372  0.0023
19915W        W51131   1.211   0.297   0.321  0.2348 -0.2393  0.2833
19916W        W51132  11.249  26.418   8.159 -0.0606 -0.2274  0.0187
19917W        W51133   4.134  26.124   1.366  0.1047 -0.2691 -0.0076
19918W        W51134  16.348  17.544  10.182 -0.0784  0.0403 -0.1180
19919W        W51135  10.690  10.522   1.145 -0.0214 -0.2010  0.1143
19920W        W51136   7.673  10.035   0.092  0.0286 -0.1345  0.1694
19921W        W51137   5.527   9.810   1.431 -0.1570 -0.1807  0.0474
19922W        W51138  14.348   0.701   3.190  0.1730 -0.0315 -0.2380
19923W        W51139  17.025   8.867   0.061 -0.1235  0.0823  0.1260
19924W        W51140  19.911   5.400   2.444  0.0506  0.2287 -0.1278
19925W        W51141  20.591  21.548   1.766  0.2261  0.1839 -0.0814
19926W        W51142   5.510  18.473   2.967  0.1440 -0.4942 -0.3821
19927W        W51143   0.120   0.343   8.108 -0.2253 -0.0180  0.2949
19928W        W51144   7.594   7.037   1.208 -0.3374  0.2687 -0.0029
19929W        W51145  21.351  14.993   2.774 -0.0114 -0.3427  0.0097
19930W        W51146  15.409  16.441   3.435  0.1169  0.1993  0.1956
19931W        W51147   6.915  20.974   8.860 -0.2485 -0.1148 -0.0552
19932W        W51148  25.442  22.483   0.869 -0.3844  0.3472  0.0549
19933W        W51149   3.057  17.022   8.813  0.0847  0.0882 -0.1454
19934W        W51150  26.961  24.648   8.978  0.1830 -0.1139 -0.1148
19935W        W51151  12.299  10.698   2.735 -0.2049 -0.0031  0.1016
19936W        W51152  10.427  16.742   2.651 -0.0455  0.1037  0.0258
19937W        W51153  19.715   1.938   9.712  0.1519 -0.4071 -0.0622
19938W        W51154   9.419  16.203   9.966 -0.0844 -0.0511 -0.2090
19939W        W51155  26.019  26.025   7.312  0.0579 -0.0949  0.2238
19940W        W51156  22.059  26.570   0.492  0.2428 -0.0673 -0.2382
19941W        W51157  23.239   7.044   0.040  0.0070  0.0730  0.1112
19942W        W51158  16.619   5.106   8.058 -0.0759  0.2540  0.2604
19943W        W51159  26.102  19.751   2.950  0.2627  0.0659 -0.0530
19944W        W51160   9.173   7.797   0.082 -0.0975 -0.2628  0.1409
19945W        W51161  12.993  21.396   9.469 -0.0159  0.0351 -0.0931
19946W        W51162  19.205   0.527   8.420 -0.3888 -0.0051  0.1039
19947W        W51163  11.854   0.186   8.589  0.0713 -0.0780  0.2419
19948W        W51164  17.726   0.592   2.006 -0.1005 -0.0571 -0.2432
19949W        W51165  17.450   7.336   2.763  0.2821 -0.3495  0.2371
19950W        W51166   5.296  26.361   3.306 -0.2211  0.0299  0.0389
19951W        W51167   3.924  10.767   9.078  0.4712 -0.2803  0.1092
19952W        W51168  23.778  17.188  10.117  0.4261  0.0102  0.0220
19953W        W51169   4.942   1.478  10.276  0.0459 -0.1087 -0.0185
19954W        W51170   1.542  24.176   3.004  0.2342 -0.1827  0.2556
19955W        W51171  24.966  14.624   3.087  0.1591  0.1820  0.0754
19956W        W51172   0.252  25.694   9.718 -0.0914  0.0930 -0.1177
19957W        W51173  12.700   2.372   1.313 -0.1208 -0.1702  0.4877
19958W        W51174  13.639   8.131   8.659 -0.0574 -0.0276  0.0440
19959W        W51175  18.493   8.660   2.216 -0.2052  0.1322  0.0020
19960W        W51176   7.677   3.069   7.667 -0.1006 -0.1352  0.0383
19961W        W51177  21.517  24.828   8.637 -0.0425 -0.1600  0.0065
19962W        W51178   8.680   6.831   9.319  0.0545  0.0339 -0.0920
19963W        W51179   9.392  12.503   1.487  0.4172  0.1810 -0.1856
19964W        W51180   1.945   0.164   7.995  0.0138 -0.6028  0.1397
19965W        W51181   0.050   5.840  10.393  0.0938 -0.0089 -0.1474
19966W        W51182  13.518  27.272   8.511 -0.1682 -0.2473 -0.0150
19967W        W51183   9.763   9.665   1.490  0.0216 -0.2205 -0.1869
19968W        W51184  15.070   7.440   3.201  0.3120  0.1097 -0.0084
19969W        W51185  14.635  13.701   1.799  0.0556 -0.0734  0.4447
19970W        W51186  22.085  16.951   0.685  0.0876  0.1547 -0.3217
19971W        W51187  12.490  13.250   0.455  0.0452  0.0540 -0.1494
19972W        W51188   7.342  10.817   2.980 -0.0364 -0.0944  0.1292
19973W        W51189   2.232   7.390   2.623 -0.3451  0.0763  0.1199
19974W        W51190  16.044   7.399   8.237 -0.1642 -0.0579 -0.0479
19975W        W51191  19.526   4.225   9.675  0.0782  0.0727  0.2808
19976W        W51192   4.151   3.590   2.651 -0.2178  0.3486  0.2883
19977W        W51193   7.517   5.521   9.185 -0.1651 -0.0260  0.2483
19978W        W51194   2.840   2.667   7.941  0.1627 -0.0885  0.0044
19979W        W51195  13.520  11.904   9.640  0.1087  0.2209  0.1448
19980W        W51196  17.585  18.148   8.493  0.2971 -0.0441 -0.0729
19981W        W51197  24.642  25.261   8.626  0.3880 -0.1915  0.2005
19982W        W51198  11.025   2.043   2.076  0.0924 -0.1494 -0.3230
19983W        W51199  24.460  25.126   0.060  0.2405 -0.0830  0.1148
19984W        W51200  25.775  21.429   1.917  0.1304  0.0469  0.1351
19985W        W51201   5.818   6.529   0.082  0.2566  0.0704 -0.0076
19986W        W51202  12.226  25.630   9.383 -0.0801  0.3962  0.0870
19987W        W51203  24.297  18.375   2.914  0.1458  0.1268  0.0116
19988W        W51204  22.633  17.679   9.207 -0.1379 -0.1244  0.2251
19989W        W51205  18.054   9.526   2.744  0.0872 -0.1161  0.3038
19990W        W51206   2.493  25.951   3.585 -0.1038 -0.0190 -0.2098
19991W        W51207  12.567  21.755   0.610  0.1676  0.2099 -0.0637
19992W        W51208   6.114  13.557   8.681 -0.1122 -0.0774  0.0879
19993W        W51209   1.174   8.920   9.555 -0.1991  0.1520  0.1619
19994W        W51210  17.663  10.420   0.494 -0.0550 -0.1541 -0.3658
19995W        W51211  12.280   1.323  10.118 -0.0665 -0.3955 -0.0634
19996W        W51212   4.178   6.813   8.068  0.0213 -0.0127  0.4873
19997W        W51213  12.965  24.115   2.291 -0.0143 -0.1033 -0.0414
19998W        W51214   5.367   8.684   1.987 -0.2880 -0.1159 -0.0331
19999W        W51215  18.104   5.837  10.100  0.3365  0.1585 -0.3272
20000W        W51216  24.803  25.931   9.065  0.1309  0.1971  0.2735
20001W        W51217  20.253  24.324   8.376  0.0673  0.4088 -0.0432
20002W        W51218  12.290  14.694   0.299 -0.1592  0.0594  0.0486
20003W        W51219   6.828  24.113   1.809  0.3435  0.6384 -0.1608
20004W        W51220  10.517   2.752   9.193 -0.2701 -0.4284  0.0311
20005W        W51221   2.010  19.784   9.562 -0.1162  0.1145 -0.0780
20006W        W51222  26.351   8.162   2.451  0.1084 -0.2969  0.3763
20007W        W51223  23.811   5.348   2.698  0.1075  0.0880 -0.0904
20008W        W51224   1.959   3.160   3.526 -0.2100  0.0918 -0.0138
20009W        W51225  22.165  13.732   9.693  0.1947 -0.4285  0.0052
20010W        W51226   8.391  25.586   3.049 -0.0971  0.0994 -0.0821
20011W        W51227  19.248  13.811   0.547  0.1095  0.3689 -0.1564
20012W        W51228   2.801  19.399   3.924 -0.0527 -0.1579  0.3357
20013W        W51229  17.870  21.779   3.548  0.2206 -0.0590 -0.1680
20014W        W51230  21.890  17.953   7.658  0.2541 -0.3500 -0.0501
20015W        W51231   9.810   1.332   2.392 -0.0600  0.2019  0.0124
20016W        W51232  12.176   8.539   1.436 -0.3723 -0.1110 -0.1219
20017W        W51233   4.920   7.177   7.324 -0.0086  0.0164 -0.0612
20018W        W51234  20.416  25.378   8.385 -0.1370  0.0721  0.0120
20019W        W51235  21.583  13.171   8.211 -0.0436  0.3218  0.0139
20020W        W51236  12.864  20.823   8.056 -0.1234  0.1736 -0.0635
20021W        W51237  26.125  21.067   8.943 -0.1788 -0.2239  0.0821
20022W        W51238   3.878  13.358   2.343  0.1387 -0.0697  0.0221
20023W        W51239   2.166  13.865   9.072  0.3035 -0.3618  0.0911
20024W        W51240  14.315  12.980   3.233 -0.0312  0.0860 -0.0608
20025W        W51241  26.806  18.144   1.460 -0.3490  0.0542  0.0301
20026W        W51242  24.701  14.675   7.075 -0.1405 -0.1812 -0.0924
20027W        W51243   4.426  13.014   2.272 -0.0841  0.1216  0.1165
20028W        W51244  14.829  12.955   9.493 -0.2980 -0.2410 -0.3881
20029W        W51245   1.191  25.515   3.080  0.0696 -0.1200  0.2489
20030W        W51246   2.367  20.892   9.212 -0.2520  0.0115 -0.2902
20031W        W51247  12.498  26.560   8.356 -0.0922 -0.1899  0.0907
20032W        W51248  15.453  19.257   8.274 -0.0296  0.0565 -0.2227
20033W        W51249  23.703   3.234   2.116 -0.0239 -0.0371 -0.2111
20034W        W51250  26.075  12.406   8.957  0.0363 -0.1395 -0.2212
20035W        W51251   0.804  15.420   1.120 -0.1012  0.2651 -0.3248
20036W        W51252  27.369  19.801   8.394 -0.3218  0.0500  0.2574
20037W        W51253   5.411  18.803   9.421 -0.0014  0.0328  0.1398
20038W        W51254   3.461   2.989   3.257 -0.2188 -0.2124 -0.1117
20039W        W51255  17.998   1.179   0.426 -0.2814 -0.5507 -0.0890
20040W        W51256  10.511   4.015  10.227  0.1443  0.4573  0.0990
20041W        W51257  20.612  11.036   1.319 -0.1080  0.2909 -0.1120
20042W        W51258  22.487  12.164   0.822 -0.0045  0.0864  0.1204
20043W        W51259  23.087  16.409   2.509  0.0314 -0.1389  0.1350
20044W        W51260  11.009   9.925   9.184  0.2178  0.2802 -0.5080
20045W        W51261  17.945   3.366   1.119 -0.1440  0.2835 -0.0723
20046W        W51262  24.418   0.557   8.078  0.0283  0.0272 -0.1488
20047W        W51263  22.622   4.555   2.914 -0.1409 -0.1141  0.0369
20048W        W51264  10.082   7.794   7.818 -0.1824  0.0059  0.1660
20049W        W51265  22.343   5.779   2.498 -0.0515  0.0782 -0.0214
20050W        W51266  16.950  25.122   0.956  0.3257  0.1599  0.3656
20051W        W51267  11.048  16.168   1.949 -0.2491 -0.1853 -0.0166
20052W        W51268  12.270  26.709   3.298 -0.1660  0.0096  0.1573
20053W        W51269   1.585  22.411   8.205 -0.1029 -0.1921  0.0082
20054W        W51270  11.691   5.210   8.099 -0.3522  0.1257 -0.1622
20055W        W51271  14.371  24.595  10.125 -0.1061 -0.2221 -0.0123
20056W        W51272  20.497  19.920   2.893  0.0924 -0.1096  0.2915
20057W        W51273  25.204  11.949   2.423 -0.0787  0.2073  0.1121
20058W        W51274  20.256  27.481   9.481  0.0215 -0.0575 -0.0989
20059W        W51275  10.997   3.402   8.221  0.0657  0.1682  0.1916
20060W        W51276  23.185  25.676   2.740 -0.0303  0.0413  0.1750
20061W        W51277  15.807   0.663   9.204 -0.4867 -0.3677 -0.1035
20062W        W51278  10.200  24.151   8.169  0.0189  0.1433  0.0339
20063W        W51279  19.894  14.309   3.069 -0.1354  0.1262  0.2111
20064W        W51280  16.729  22.925   7.642 -0.0192  0.3131  0.2365
20065W        W51281   4.045  25.917   0.035 -0.2492 -0.0564 -0.1738
20066W        W51282  23.327  26.790   0.204 -0.0886  0.0245  0.0963
20067W        W51283  23.420   6.674   2.150  0.0431 -0.0990  0.0083
20068W        W51284  11.908   0.123   0.506 -0.1620  0.2322  0.1636
20069W        W51285   2.956   1.005   2.057 -0.0418 -0.1073 -0.1135
20070W        W51286   0.778  10.019   1.837  0.0011  0.2760 -0.1032
20071W        W51287  20.041   4.252  10.307  0.0486  0.1653  0.1177
20072W        W51288  24.764   9.504   8.674 -0.1257 -0.0282 -0.2762
20073W        W51289   2.208  11.933  10.087  0.0712  0.3092  0.1967
20074W        W51290  12.625  18.566   3.407 -0.1209  0.0211  0.3394
20075W        W51291  24.788  12.382   8.966 -0.5167  0.0236  0.2039
20076W        W51292  16.200   5.212   7.782 -0.0121  0.0904  0.0012
20077W        W51293  14.030   7.074   3.361 -0.1226  0.0148 -0.3149
20078W        W51294  10.771   8.913   0.328 -0.0804  0.1360 -0.1634
20079W        W51295  25.384  11.961   1.173  0.2558 -0.0558  0.1551
20080W        W51296  20.973  22.910   2.294  0.1798 -0.0247  0.0343
20081W        W51297  17.051  10.885  10.445 -0.0763 -0.1472  0.0953
20082W        W51298   8.267  26.546   2.507 -0.0493  0.0685  0.3123
20083W        W51299   3.415   5.968   3.118 -0.4506  0.1758 -0.0026
20084W        W51300   1.227  27.207   8.675 -0.0654  0.0111  0.0452
20085W        W51301  18.684   6.779  10.009  0.2248  0.0980 -0.0076
20086W        W51302  17.396   0.286   0.931  0.2044 -0.2471 -0.1195
20087W        W51303  16.906  13.185   1.203  0.1248  0.1049  0.0282
20088W        W51304   6.730   5.255   0.879  0.2794  0.0834  0.1178
20089W        W51305  23.847   7.536   9.957  0.1744 -0.0081 -0.3413
20090W        W51306  18.730  24.947   0.312 -0.1475  0.2268  0.0106
20091W        W51307  16.876  19.918   9.295 -0.0733 -0.0333 -0.0346
20092W        W51308  13.659   4.620   1.689 -0.0726 -0.1108  0.1572
20093W        W51309   9.772  16.560  10.264  0.0569 -0.2472  0.1456
20094W        W51310  21.644  10.101   1.063 -0.1208 -0.3251  0.3662
20095W        W51311   3.796  22.797   9.164  0.2327 -0.2212  0.0154
20096W        W51312   5.866  11.767   1.257  0.0331  0.0770  0.1238
20097W        W51313   2.981   1.682   1.417 -0.1980  0.2665  0.0536
20098W        W51314  22.731   5.815   8.340 -0.0859 -0.0414  0.4012
20099W        W51315  12.778  12.593   9.198 -0.0555  0.0785 -0.1188
20100W        W51316   8.409  14.057   3.282 -0.1395 -0.1181 -0.1389
20101W        W51317  15.857  24.613   9.907  0.3704 -0.1754 -0.0890
20102W        W51318   6.990  12.667   7.488 -0.0246 -0.0685 -0.2107
20103W        W51319  12.674  15.370   2.047  0.0293  0.0239 -0.0569
20104W        W51320   2.812  11.522   1.839 -0.0866  0.0204 -0.0482
20105W        W51321   9.961  23.845   8.950 -0.0612 -0.1871 -0.2941
20106W        W51322  25.657  24.350  10.386 -0.1737 -0.0230  0.0704
20107W        W51323  12.080   5.304   9.516 -0.1739 -0.0608  0.0130
20108W        W51324   4.804   2.761   9.947  0.0682 -0.0032 -0.1087
20109W        W51325   1.642   4.741   0.939 -0.1155 -0.1447 -0.2032
20110W        W51326  11.493   8.864   9.302  0.2774 -0.0595  0.1016
20111W        W51327  15.802  11.963  10.297  0.0213 -0.1304 -0.0113
20112W        W51328  11.718  18.452   2.179  0.0969  0.0839  0.1251
20113W        W51329   6.897   1.404   8.857 -0.2633 -0.2109 -0.1928
20114W        W51330  25.745  23.017   2.391  0.0186 -0.2132  0.0010
20115W        W51331  18.082   8.237   0.227 -0.3320  0.0673  0.2014
20116W        W51332  16.197  16.926   2.576  0.1076 -0.4089  0.0133
20117W        W51333   7.801   8.365  10.374  0.0568  0.0095  0.4305
20118W        W51334   4.102  14.369   0.183 -0.0985  0.0106  0.0621
20119W        W51335  15.706  18.426   2.973  0.1131 -0.1469  0.0341
20120W        W51336  13.251  20.315   7.317 -0.0319 -0.2065  0.0631
20121W        W51337  10.669  22.596   2.331 -0.4197 -0.0036  0.1048
20122W        W51338   4.197  23.367   3.146 -0.2593 -0.0220  0.2340
20123W        W51339  14.556   9.387  10.141  0.1847 -0.1594  0.0125
20124W        W51340  12.390   6.976   0.644 -0.0577 -0.1395  0.1803
20125W        W51341  27.490  18.452   1.270 -0.0225 -0.3926 -0.1399
20126W        W51342   4.265  20.695   0.460 -0.1099 -0.1017  0.0388
20127W        W51343   0.320   0.294   0.734  0.3658  0.7219  0.2581
20128W        W51344  25.067  13.402   9.356  0.0501 -0.1281  0.2439
20129W        W51345  19.208  24.885   0.620 -0.0172  0.1115 -0.3203
20130W        W51346   3.500  23.838   3.042  0.2560  0.0546  0.2003
20131W        W51347  17.914   5.823   1.187 -0.0471  0.2231  0.0746
20132W        W51348   9.044  24.869   3.409 -0.1018 -0.1333 -0.1583
20133W        W51349   0.229   5.753   2.419 -0.0145  0.0669  0.2419
20134W        W51350   5.233   7.713   2.619 -0.2408  0.1428  0.1059
20135W        W51351  14.923  24.748   9.036  0.0493 -0.3032 -0.0516
20136W        W51352   1.189  15.492   8.274 -0.1506  0.2452  0.0251
20137W        W51353  12.754   0.868   8.656 -0.0052 -0.1071 -0.1922
20138W        W51354  13.379   8.695   3.471  0.0211  0.0952 -0.1673
20139W        W51355  22.270  22.183   1.137 -0.2582  0.4671  0.4171
20140W        W51356   6.917  24.686   3.609  0.1046 -0.0042  0.0577
20141W        W51357  10.579   6.051   0.994 -0.0836  0.1597  0.1168
20142W        W51358  10.573  18.001   1.793  0.1557 -0.1054 -0.1750
20143W        W51359  26.444  27.158  10.428 -0.2530  0.0492 -0.0031
20144W        W51360  17.682   9.244   9.380 -0.0942  0.1708 -0.0590
20145W        W51361  16.943   1.709   2.677 -0.0273 -0.1286 -0.1797
20146W        W51362  22.466   8.951   8.321 -0.3106 -0.1509 -0.0335
20147W        W51363  25.315   3.095   1.833 -0.0213 -0.1741  0.2986
20148W        W51364  21.676   5.059   9.676 -0.2341  0.0631 -0.1000
20149W        W51365  19.495   0.431   7.990 -0.1759  0.1635 -0.3525
20150W        W51366  25.614   1.753   9.017  0.0354 -0.1733 -0.0808
20151W        W51367  17.036  11.333   8.685 -0.0360  0.0650  0.2292
20152W        W51368  26.212  21.847   8.287 -0.2461 -0.3955  0.1148
20153W        W51369  13.797   5.715   9.424 -0.0754  0.0457 -0.1451
20154W        W51370  19.064   0.844   8.950  0.3196  0.0547 -0.1029
20155W        W51371  19.565  19.438   2.921 -0.2635 -0.0005 -0.0027
20156W        W51372   1.982  18.371   9.550  0.1160  0.0096  0.5196
20157W        W51373  19.425  18.035   0.709  0.1039  0.3071  0.1622
20158W        W51374   6.808  14.700   7.271  0.2672 -0.3578  0.1319
20159W        W51375  24.715   2.225   3.358 -0.0161  0.0927 -0.1548
20160W        W51376  16.595  26.097   0.165  0.1491 -0.1664  0.0737
20161W        W51377  25.751   5.572   3.028 -0.2625 -0.0471 -0.1157
20162W        W51378  13.206  27.091   7.525  0.3079  0.2696 -0.0458
20163W        W51379   5.555  25.209   3.629  0.0359  0.0194  0.3118
20164W        W51380  24.397  21.877   0.756  0.0915  0.0738 -0.0395
20165W        W51381  17.477  11.763   7.941  0.1509  0.1354  0.0062
20166W        W51382   4.910  24.928   1.676  0.2602 -0.2845 -0.0670
20167W        W51383  10.689   0.017   7.426  0.0247 -0.0529 -0.0320
20168W        W51384  22.585  24.879   7.275  0.2749  0.0951  0.1172
20169W        W51385  20.183  12.920   8.716  0.3119  0.1323 -0.1441
20170W        W51386  11.330   7.978   0.791  0.0237 -0.0877  0.0342
20171W        W51387   6.586  21.503   8.349 -0.0398  0.3661 -0.0472
20172W        W51388   1.335   5.783   7.914 -0.1944 -0.1045 -0.1508
20173W        W51389  20.277   1.141   2.496  0.1234 -0.0584  0.2262
20174W        W51390   4.056   3.701   0.122 -0.1494  0.0125  0.3231
20175W        W51391   6.555   8.996   1.184 -0.1214  0.3111  0.1642
20176W        W51392  13.603  27.370   4.112  0.1090  0.0865  0.1611
20177W        W51393   1.747   5.536   1.572 -0.0350 -0.1581 -0.3014
20178W        W51394   4.877  18.847   9.402  0.0059 -0.0191 -0.1948
20179W        W51395   4.106  10.160   2.586  0.0641  0.0918 -0.1306
20180W        W51396  22.855  17.683   0.891  0.0256 -0.2412  0.0638
20181W        W51397  22.252   8.920   7.594  0.2284  0.2611  0.0714
20182W        W51398   9.404   4.284   9.635 -0.0648 -0.2886  0.1705
20183W        W51399  20.969  18.254   8.906 -0.2201  0.1905 -0.2932
20184W        W51400  16.169  27.247   0.157  0.1913  0.1049 -0.1314
20185W        W51401  27.434   5.312   1.384 -0.0270 -0.2949  0.1768
20186W        W51402  15.302  23.229   9.275  0.0919  0.0376 -0.1932
20187W        W51403  10.910   2.339   1.254  0.1242 -0.0724  0.0975
20188W        W51404  14.015  22.932   0.507 -0.0888 -0.0547  0.1338
20189W        W51405   7.361  21.351   0.469  0.1677  0.0623 -0.3875
20190W        W51406   2.324  20.527   7.629 -0.1217  0.0334  0.0821
20191W        W51407   5.339  16.790   2.535  0.1799  0.1253 -0.4495
20192W        W51408  17.773  14.726   1.281  0.0291 -0.0089 -0.2874
20193W        W51409   8.155  23.644   9.165  0.2256 -0.2471 -0.1190
20194W        W51410  18.141  14.375   0.409 -0.0029 -0.1341 -0.1211
20195W        W51411  10.551  24.424   8.436 -0.1587  0.0226 -0.1317
20196W        W51412  12.152   2.079   9.493  0.1057 -0.1324 -0.0238
20197W        W51413   7.487   0.054   3.186  0.0257 -0.2289 -0.2740
20198W        W51414   5.185   6.271   8.805 -0.4259 -0.1544  0.0099
20199W        W51415  12.675  24.572   1.411 -0.1200 -0.0980 -0.1581
20200W        W51416  26.462   1.821   3.134  0.0589 -0.0240  0.0289
20201W        W51417   4.584  25.813   2.242 -0.0049  0.2458  0.1210
20202W        W51418   8.508  19.817   2.677  0.2480  0.3191 -0.0160
20203W        W51419  22.605   8.511   2.873  0.1484 -0.4209 -0.0919
20204W        W51420  13.555   9.551   3.361 -0.0620 -0.2072  0.1310
20205W        W51421  23.276  16.152   9.205  0.0368 -0.1397  0.0630
20206W        W51422  14.906   9.533   0.419 -0.1643 -0.2763 -0.1762
20207W        W51423  21.265  19.249   3.288  0.0809  0.0017 -0.1434
20208W        W51424  27.158  10.422   3.267  0.1783  0.3582  0.3607
20209W        W51425  20.881  18.035   8.497  0.0072 -0.0038  0.0209
20210W        W51426   0.499  13.805   2.285 -0.0728  0.0291  0.2273
20211W        W51427   3.904  25.889   2.119 -0.1589  0.4194 -0.1131
20212W        W51428  16.149   0.459   0.682 -0.0103 -0.1442 -0.0030
20213W        W51429   8.396   2.608   2.070  0.2588  0.0913 -0.3054
20214W        W51430  16.370  11.769   1.470  0.4669 -0.1758  0.3227
20215W        W51431   6.559  11.698   1.442  0.2568 -0.0343  0.0120
20216W        W51432  19.004   7.000  10.370  0.1362  0.0385  0.0514
20217W        W51433   0.160   0.871   9.326 -0.0458  0.0901  0.0255
20218W        W51434   4.629  27.069   9.088  0.1209  0.1316 -0.0980
20219W        W51435  18.307  22.299   0.837 -0.0416 -0.0308  0.1401
20220W        W51436  23.740  13.280  10.386 -0.1260 -0.0216  0.3506
20221W        W51437  25.868  13.886   9.397  0.0082  0.3260  0.0255
20222W        W51438   5.014   4.760   0.373 -0.0654 -0.0974  0.1438
20223W        W51439  15.227  21.740   9.146  0.0440  0.1108 -0.1274
20224W        W51440  25.979  13.830   0.894  0.1500 -0.2672 -0.0181
20225W        W51441  11.607  16.128   2.184 -0.3431 -0.0143  0.2635
20226W        W51442  19.691  24.302   9.214 -0.1636 -0.1648 -0.0492
20227W        W51443   8.846   9.230  10.009  0.2867 -0.0990  0.1164
20228W        W51444  23.829   3.903   8.149 -0.0742 -0.4561  0.0913
20229W        W51445   8.363   6.571   8.497 -0.2404 -0.4036  0.0465
20230W        W51446  14.385  23.420   8.909 -0.2053  0.0108  0.0999
20231W        W51447   2.887  26.717   9.142  0.1999  0.3391 -0.0651
20232W        W51448  27.601  16.564   8.592  0.0436 -0.0586 -0.1214
20233W        W51449  19.229   2.938   0.448 -0.2123  0.2305  0.0913
20234W        W51450  17.471   4.599   9.817 -0.1609 -0.0694 -0.0682
20235W        W51451  18.120  21.687   2.696  0.2411 -0.1120  0.1500
20236W        W51452   9.378  25.160   3.706  0.0711 -0.0295 -0.1014
20237W        W51453   7.125   0.434   0.519 -0.2048 -0.1760  0.1809
20238W        W51454   8.392  11.938   1.539  0.0454 -0.1334  0.1328
20239W        W51455  12.634  11.719   9.432 -0.1137 -0.3784 -0.4106
20240W        W51456  27.588   2.736   1.813 -0.1810 -0.0594 -0.0223
20241W        W51457   7.760  13.774   0.845 -0.0987 -0.0381 -0.0231
20242W        W51458   3.719  17.807   0.137 -0.1824 -0.1135  0.1408
20243W        W51459  14.257  13.672   2.352  0.1592 -0.1201 -0.0232
20244W        W51460   2.884   8.113   2.224  0.3752 -0.2465  0.1801
20245W        W51461  10.459  23.203   0.047 -0.0230 -0.2514  0.2579
20246W        W51462   3.623   3.140   0.208  0.5850 -0.0395 -0.0725
20247W        W51463   6.757   0.960   0.073  0.6142 -0.0480  0.0434
20248W        W51464   6.209   2.463  10.204  0.1451 -0.2531 -0.4082
20249W        W51465   2.312  25.534   0.501  0.2770 -0.0522  0.0300
20250W        W51466  24.671  20.363   3.582 -0.1756 -0.2984 -0.5081
20251W        W51467   3.052  13.267   0.651  0.0220 -0.1031 -0.2112
20252W        W51468  24.043   2.846   2.876 -0.0748  0.1283  0.1400
20253W        W51469  13.136  24.270   1.251  0.2651  0.2873  0.0222
20254W        W51470   6.472  13.564   0.705  0.0016  0.3884  0.0316
20255W        W51471   9.674   7.244   8.537  0.0148  0.1215 -0.1819
20256W        W51472   0.390   3.420   8.453  0.0753  0.1972  0.1326
20257W        W51473  26.786  17.075   0.048 -0.0689  0.1469 -0.1174
20258W        W51474   7.884   3.963   2.653  0.1520 -0.1507  0.1732
20259W        W51475  23.138  16.430   0.418 -0.2086  0.0944 -0.2543
20260W        W51476  11.390   4.254   8.735  0.1266 -0.1256  0.1209
20261W        W51477  22.858   2.444   8.684  0.2556 -0.2439  0.2687
20262W        W51478  17.470  26.797   3.009 -0.0325  0.3045 -0.2025
20263W        W51479  15.753   3.419   1.539  0.0103  0.1472 -0.0695
20264W        W51480  13.302  26.089   9.568 -0.3148 -0.2707 -0.1414
20265W        W51481   4.008  13.836   1.347 -0.0666 -0.0105  0.0140
20266W        W51482  20.051   9.897   9.888 -0.1127  0.0803  0.0748
20267W        W51483  24.107  20.318   7.347  0.1339 -0.0779 -0.0499
20268W        W51484  21.235  22.106  10.269 -0.2845 -0.1728  0.2942
20269W        W51485  24.424  21.366  10.413  0.4140 -0.2363 -0.5060
20270W        W51486   9.801  26.024   3.534  0.0831  0.1638 -0.0924
20271W        W51487  22.327   0.292   9.291 -0.0247 -0.0697 -0.2459
20272W        W51488   8.059   2.263   0.250 -0.2575  0.1090 -0.1198
20273W        W51489  12.813   1.568   2.978 -0.1333  0.1091 -0.0760
20274W        W51490  18.949  20.722   1.414 -0.0952 -0.0091  0.1748
20275W        W51491  25.254   7.004  10.238  0.0119  0.1232  0.3282
20276W        W51492   3.917  25.017   8.931  0.1031 -0.3126  0.3400
20277W        W51493  26.720  13.862   3.391 -0.1780  0.0881  0.0014
20278W        W51494  25.827  22.645   2.115  0.0636  0.4437  0.0876
20279W        W51495  16.239  16.852   9.736 -0.0094  0.0710  0.1874
20280W        W51496   1.395  14.104   8.490 -0.0131  0.1919  0.3347
20281W        W51497  26.183   8.997   0.887 -0.1195  0.0578  0.0364
20282W        W51498  12.032  11.892   8.888 -0.2935  0.2283 -0.2238
20283W        W51499   1.674   1.860   9.929  0.0170  0.0756 -0.0226
20284W        W51500   9.218  23.162   3.356 -0.3482  0.0317  0.1392
20285W        W51501  19.182   9.347  10.458  0.0526 -0.1872 -0.1368
20286W        W51502  10.841  11.779   8.668 -0.0184 -0.0322  0.0646
20287W        W51503   9.593  26.128   8.843  0.0336 -0.2128  0.4385
20288W        W51504   6.926   1.958   9.714  0.0047 -0.0603  0.0350
20289W        W51505   2.101  21.007   2.676  0.3591  0.0208  0.0067
20290W        W51506   8.947  10.981   2.373 -0.1513 -0.0744 -0.2585
20291W        W51507  15.675   3.507   8.508  0.2192 -0.4114  0.1867
20292W        W51508   2.851  20.748   2.690 -0.1309  0.2133  0.2336
20293W        W51509   1.023   3.169   1.204  0.0255 -0.0767  0.2205
20294W        W51510  19.208  14.640   1.343  0.0484 -0.0848  0.1381
20295W        W51511  22.773  24.762   0.181 -0.0674  0.1630 -0.1501
20296W        W51512  22.917  18.422   2.508 -0.1301 -0.2189 -0.1153
20297W        W51513  21.906   1.539   2.313 -0.2641 -0.1006 -0.0821
20298W        W51514  11.694  15.623   2.167  0.1401 -0.2421  0.2297
20299W        W51515  16.666  21.796   4.157  0.1847  0.2242  0.0194
20300W        W51516  12.376  16.757   2.487  0.0800  0.0164 -0.3101
20301W        W51517  16.617  13.230   8.762  0.0901 -0.3330 -0.3679
20302W        W51518  19.449  26.474   3.908  0.0735 -0.1803 -0.2747
20303W        W51519   5.263  15.960   1.385 -0.1126 -0.3737  0.1129
20304W        W51520   1.822  14.041   7.891  0.1859  0.2775 -0.2581
20305W        W51521  14.751  23.860   1.723 -0.1254  0.3047 -0.3180
20306W        W51522  11.060  23.136   9.370 -0.0804 -0.0519 -0.1054
20307W        W51523  18.221   4.442   2.271  0.0468 -0.0545 -0.1311
20308W        W51524   7.277  24.480   1.339 -0.2922  0.1462 -0.0600
20309W        W51525  22.201  27.440   3.005  0.2811 -0.0831 -0.0566
20310W        W51526   1.604  13.726   3.772 -0.0614  0.6810  0.1214
20311W        W51527  22.972  10.496   9.240 -0.0285  0.0105 -0.1203
20312W        W51528  25.117  18.430   3.728 -0.2218  0.1505  0.0746
20313W        W51529  20.757   5.635   8.205 -0.1641  0.0010  0.0085
20314W        W51530  12.378  19.161  10.511 -0.1093  0.1192  0.2080
20315W        W51531   1.682  18.125   8.561 -0.1955 -0.1784 -0.1419
20316W        W51532  11.775  23.514   2.670 -0.0792  0.0159  0.0404
20317W        W51533  11.653  23.974   2.739  0.0213  0.3508  0.1935
20318W        W51534   4.880   8.230   2.630  0.0442 -0.1742  0.1986
20319W        W51535   9.841  22.625   2.148 -0.4111 -0.0975 -0.1509
20320W        W51536   0.309  17.821   1.835  0.2940 -0.0166  0.3720
20321W        W51537  13.040  23.689   1.220 -0.1427  0.0407  0.0610
20322W        W51538  11.847  12.946   0.210 -0.0539  0.0670  0.0235
20323W        W51539   4.726  10.262   7.634  0.2061 -0.1794  0.0203
20324W        W51540   3.760  24.825   1.918 -0.0327 -0.0866 -0.1223
20325W        W51541  13.938  11.808   9.283  0.1986  0.4237 -0.2235
20326W        W51542  20.417   0.233   1.262  0.0880 -0.0821 -0.3023
20327W        W51543  18.318  17.799   8.013  0.1686 -0.0874  0.1365
20328W        W51544  14.035  21.416   2.119 -0.2336 -0.1453  0.0637
20329W        W51545  15.751   2.472   2.511 -0.1852  0.1001 -0.1571
20330W        W51546  19.684  22.853   9.396 -0.3163 -0.1983 -0.0054
20331W        W51547  19.611  14.390   1.181  0.1134  0.1560  0.1513
20332W        W51548  12.329  21.257   0.669 -0.0086 -0.3225 -0.3034
20333W        W51549  16.574  13.150   8.235  0.3417 -0.2211  0.2182
20334W        W51550  13.921   1.164   8.438  0.1780  0.0723 -0.0783
20335W        W51551  13.865   2.040   8.066  0.1404  0.2232 -0.1894
20336W        W51552  14.158  11.941   9.802  0.0128  0.1818 -0.0069
20337W        W51553   8.876  18.840   0.453  0.0944  0.1044  0.2167
20338W        W51554  14.527  17.292   9.683  0.2288  0.2947  0.0349
20339W        W51555  16.987   6.736   1.312  0.0015  0.2286 -0.1981
20340W        W51556   3.823  14.367   2.047 -0.1890  0.0922  0.0821
20341W        W51557   3.903  19.710   9.024 -0.0649  0.0580  0.1428
20342W        W51558   3.360  18.513   0.413  0.1836  0.1351 -0.2051
20343W        W51559  15.901   6.516   7.443 -0.2001 -0.0564 -0.1273
20344W        W51560  10.020   2.540   2.443  0.0119 -0.1079  0.3965
20345W        W51561   3.766  23.864   2.614 -0.0444 -0.3782 -0.0993
20346W        W51562  23.650   6.178   2.118 -0.1211  0.0646 -0.2112
20347W        W51563  13.964  14.064  10.487  0.2807 -0.0937  0.1686
20348W        W51564  22.717  24.107   9.406  0.2018 -0.1341 -0.0646
20349W        W51565  21.572  21.867   3.411 -0.0299  0.0475 -0.0193
20350W        W51566  11.824  13.852   0.170  0.1900  0.1519 -0.2729
20351W        W51567   3.004  19.101   3.555  0.0520 -0.0493 -0.0886
20352W        W51568   8.651  13.175   9.637  0.3140 -0.1160  0.1337
20353W        W51569  17.349  21.528   8.148  0.0536 -0.1121  0.0955
20354W        W51570  16.180   0.684   1.395 -0.1387 -0.1215 -0.3405
20355W        W51571  13.575  24.130   1.514 -0.4030 -0.0126 -0.0663
20356W        W51572   8.212  26.722   8.425  0.1206 -0.2100 -0.1897
20357W        W51573  18.057  26.338   9.340  0.1952 -0.3338 -0.3509
20358W        W51574   6.030  24.951   9.969 -0.0869 -0.0853 -0.2792
20359W        W51575   1.313   7.119   8.846  0.0557  0.0649 -0.1693
20360W        W51576   3.063   9.923   0.956  0.5253  0.3474 -0.3678
20361W        W51577  12.142   7.469   2.292 -0.0905 -0.0826  0.1624
20362W        W51578   2.030   9.020   9.190 -0.1015  0.3399  0.3392
20363W        W51579   4.355  18.575   8.526 -0.2072  0.1228 -0.0160
20364W        W51580   0.049  16.745   9.547  0.0415  0.1907  0.1192
20365W        W51581  25.293  23.834  10.449  0.2457 -0.1602 -0.1511
20366W        W51582  20.416  22.404   2.211  0.1243 -0.0646  0.0697
20367W        W51583  21.075   9.496   8.176  0.4107  0.2307  0.0071
20368W        W51584  21.291  26.769   7.359 -0.2251 -0.0440  0.0376
20369W        W51585  13.183  11.015   1.423  0.1986 -0.1083 -0.0628
20370W        W51586  18.099   4.525   0.111  0.1385 -0.4943 -0.0171
20371W        W51587   0.933   6.858   2.791 -0.1487  0.0963 -0.3048
20372W        W51588  19.493  15.191   7.256 -0.1123  0.2102  0.2047
20373W        W51589  21.823  20.818   0.601 -0.3342  0.3104  0.2987
20374W        W51590   7.657  12.509   2.152 -0.1889 -0.0960  0.1922
20375W        W51591  22.691  12.565   2.446  0.0380 -0.1153  0.1978
20376W        W51592   0.754  23.894  10.074  0.2247 -0.1931 -0.0257
20377W        W51593  24.312  19.116   9.555 -0.1809  0.0548 -0.0802
20378W        W51594  13.386  19.501   8.264  0.1615 -0.0986  0.2423
20379W        W51595  20.314  26.517   2.828  0.0815 -0.0186  0.2395
20380W        W51596   6.342   7.823   1.912 -0.0830  0.2178 -0.2608
20381W        W51597  12.602   6.851   0.241  0.1018  0.0704  0.0024
20382W        W51598   3.924  23.818   0.748 -0.2504 -0.1512 -0.2271
20383W        W51599  14.011   3.394   3.264 -0.0031 -0.1251  0.2347
20384W        W51600  22.376  24.811   3.588  0.1575 -0.0635  0.1889
20385W        W51601  12.463  11.721   0.378 -0.0968  0.1948 -0.3705
20386W        W51602   1.154   6.748   2.393 -0.1474 -0.0769 -0.0694
20387W        W51603  13.592  14.845  10.198  0.3290 -0.0190 -0.1246
20388W        W51604  20.213   3.596   0.285  0.0637  0.0345 -0.1899
20389W        W51605   1.303   6.927   0.930 -0.0261 -0.0867  0.1838
20390W        W51606  10.469  21.207   7.734  0.1467 -0.0933  0.2008
20391W        W51607  14.258  13.057   1.694  0.1698  0.3653  0.0860
20392W        W51608   7.132  17.589   7.894  0.3945 -0.1789 -0.1667
20393W        W51609  10.879   0.172   2.528  0.0601 -0.0670  0.2448
20394W        W51610  19.067   2.447   1.312  0.2020  0.2171  0.1467
20395W        W51611  13.232   1.609  10.267 -0.1525 -0.0001  0.0719
20396W        W51612   5.033   3.600   1.621 -0.0234  0.3269  0.0108
20397W        W51613  27.453   9.951   3.461 -0.1825 -0.1684 -0.4378
20398W        W51614  15.350  10.523   9.461 -0.1217 -0.2143 -0.1670
20399W        W51615  14.970  14.974   8.521 -0.1526 -0.1453  0.1478
20400W        W51616   0.265  11.623   0.135 -0.0889  0.0489  0.2926
20401W        W51617  16.423  19.312   9.324  0.0992  0.0577 -0.2854
20402W        W51618   6.313   6.131   0.922 -0.2463 -0.1383  0.4925
20403W        W51619  26.886  12.933   7.953 -0.2518  0.1149  0.1512
20404W        W51620  24.820  21.278   9.615 -0.2289 -0.0066  0.2046
20405W        W51621  23.354  12.646   1.427  0.1120  0.2869 -0.0689
20406W        W51622  16.000  24.219   8.793  0.0156  0.2236 -0.1476
20407W        W51623   6.657   1.349   1.814 -0.2277  0.1056 -0.0439
20408W        W51624   2.939   1.369  10.159 -0.2615 -0.1775  0.0014
20409W        W51625  13.036  17.481   0.307  0.0303  0.0455 -0.1199
20410W        W51626  10.267  23.455   2.530 -0.2818  0.0272  0.2458
20411W        W51627  10.738  20.666   0.559  0.1858  0.3530  0.3689
20412W        W51628  20.802  14.983   0.873 -0.2390  0.4429  0.0892
20413W        W51629   0.083  26.714   9.337  0.0322  0.1164 -0.4706
20414W        W51630  26.400   6.042   1.142 -0.2491 -0.1557 -0.1990
20415W        W51631  10.418   1.608   0.702 -0.1327  0.1787  0.0489
20416W        W51632   5.750   3.528   0.304 -0.0397 -0.1967  0.1836
20417W        W51633  23.198   4.737   3.842 -0.1186  0.1533 -0.3280
20418W        W51634   2.034  22.038   8.943  0.1179 -0.2463  0.2786
20419W        W51635   5.204   0.220   9.841 -0.0720  0.0891 -0.2260
20420W        W51636   2.329   2.553   9.824 -0.2023 -0.1761  0.1807
20421W        W51637  22.114  23.094   0.955  0.1522  0.0301  0.2055
20422W        W51638   3.093  16.851  10.316 -0.0082 -0.1524  0.0868
20423W        W51639  14.311   3.490   8.526  0.1925  0.1033 -0.0012
20424W        W51640  25.769  12.205   1.449 -0.0247  0.0432 -0.0206
20425W        W51641  17.656   3.033   2.906 -0.0593  0.1084  0.0543
20426W        W51642  23.941   8.396   2.791 -0.1090  0.0144 -0.0536
20427W        W51643  13.366   0.508   0.332 -0.0893 -0.0250 -0.4079
20428W        W51644   6.789   9.420   7.297  0.0249  0.0485 -0.1699
20429W        W51645   7.363   3.588   9.225  0.1989 -0.2052 -0.2238
20430W        W51646  26.795  25.494   8.779  0.0144 -0.2545  0.0355
20431W        W51647   2.320   1.143   3.005  0.0970  0.0395 -0.0085
20432W        W51648   7.138  23.171   2.503 -0.1622  0.1727  0.0652
20433W        W51649   3.445   1.121   0.116 -0.3395  0.0150 -0.2989
20434W        W51650   2.073  25.137   1.548  0.0477 -0.1023  0.1111
20435W        W51651  17.093  26.199   8.967 -0.0628 -0.0203 -0.3554
20436W        W51652  23.233  19.957   0.021 -0.2373 -0.1467 -0.3505
20437W        W51653   4.444   3.919   9.125 -0.2264  0.1127 -0.2646
20438W        W51654  10.753  13.601   3.137 -0.0940  0.0598 -0.0535
20439W        W51655  23.717  20.479   1.792  0.1429  0.0931 -0.3719
20440W        W51656  25.310  23.769   0.906 -0.1683 -0.2280  0.0583
20441W        W51657  25.860  25.382   8.081  0.2390  0.0877 -0.0502
20442W        W51658   9.229  10.667   8.180 -0.0816 -0.1602 -0.0440
20443W        W51659   4.821  21.173   9.422 -0.1982 -0.1170 -0.1133
20444W        W51660  22.836  26.989   0.776 -0.0692  0.3619  0.1561
20445W        W51661  15.613   8.385   8.580  0.0286 -0.2312  0.0343
20446W        W51662  15.292   9.995   9.585  0.3369 -0.2524 -0.1839
20447W        W51663  19.038   5.338   2.439 -0.0398  0.2456 -0.2020
20448W        W51664  19.195  21.658   2.155 -0.1899 -0.0007 -0.0661
20449W        W51665  25.104   5.332   0.110 -0.0740  0.1261  0.0277
20450W        W51666  11.271  12.655  10.197 -0.3051 -0.0203  0.1523
20451W        W51667  27.058   7.286   3.724  0.1395 -0.2097  0.1419
20452W        W51668  13.554   7.660   8.554  0.2285  0.1092 -0.2467
20453W        W51669   1.566  13.370   2.942 -0.1342  0.0862  0.0430
20454W        W51670  20.319  15.840   9.832 -0.1464  0.0525  0.2808
20455W        W51671  16.619   8.011   0.830  0.3238 -0.1034 -0.2039
20456W        W51672   2.816   5.508   0.981 -0.2327  0.0108 -0.1193
20457W        W51673  22.227  23.605   1.276 -0.3245  0.3096 -0.3822
20458W        W51674  24.859  16.276   2.235  0.2064 -0.1223 -0.0703
20459W        W51675  24.399  24.470   4.019 -0.3862 -0.2279  0.0514
20460W        W51676   1.917   6.385   0.892  0.2388  0.1505  0.0267
20461W        W51677  19.665  22.477   2.633 -0.3081  0.1130  0.0174
20462W        W51678  22.068   5.258   0.241 -0.1090  0.1608  0.0038
20463W        W51679  15.613   0.298   9.439  0.3213 -0.0921  0.1352
20464W        W51680  11.555  12.175   2.347 -0.0072  0.1526  0.2474
20465W        W51681  21.785   4.153   2.743  0.0746 -0.0457  0.2227
20466W        W51682  20.602   1.958   9.084 -0.0489 -0.2555 -0.2477
20467W        W51683  11.201  16.457   0.827  0.2197  0.1982  0.2072
20468W        W51684  18.180   2.511   2.730  0.0272  0.0413  0.0525
20469W        W51685  17.015  22.107   8.906 -0.1435  0.0810 -0.0388
20470W        W51686   4.749  15.578   7.292  0.0507  0.2563  0.1555
20471W        W51687  27.259  12.070   8.104 -0.1180  0.3720  0.0099
20472W        W51688   2.705   8.599   9.277 -0.3089 -0.1233 -0.3564
20473W        W51689  17.753  13.439   1.488 -0.0761  0.2115  0.4017
20474W        W51690  11.788  10.444   9.654  0.0092 -0.1824  0.3710
20475W        W51691  23.789  15.587  10.117  0.0664  0.4270  0.1657
20476W        W51692  23.993   9.784   0.922 -0.2123  0.2141 -0.0692
20477W        W51693   2.613   0.125  10.330  0.0449  0.2405 -0.4791
20478W        W51694  27.066  23.083   1.146 -0.1131  0.1185  0.1615
20479W        W51695   9.404  23.144   1.004  0.1801 -0.1304  0.0417
20480W        W51696   9.905  19.490   2.517 -0.0020  0.2037  0.2774
20481W        W51697  25.350  14.802  10.504 -0.1918  0.1129  0.0667
20482W        W51698  10.461  18.534   3.890 -0.2139 -0.0039 -0.0234
20483W        W51699  24.063   1.865   3.018 -0.1980  0.1173  0.5818
20484W        W51700  23.578   8.405   2.407  0.0189 -0.0339 -0.0488
20485W        W51701  14.237   3.058   1.575  0.1925 -0.1357  0.0921
20486W        W51702   1.058  24.220   2.794  0.0162  0.2263  0.2063
20487W        W51703  26.492  27.390   0.747 -0.3632 -0.0040 -0.0790
20488W        W51704  26.473  21.602  10.389 -0.0774 -0.1802 -0.0607
20489W        W51705  15.655  16.992   1.893  0.3460 -0.1660  0.2708
20490W        W51706  13.343  15.372   8.654  0.0642 -0.0045 -0.0352
20491W        W51707  19.614  25.438   0.327  0.5048  0.1002 -0.3545
20492W        W51708  11.582  12.304   8.822  0.0673  0.0794  0.2045
20493W        W51709   9.957  13.571   8.008 -0.0944 -0.0075 -0.0845
20494W        W51710  17.832  11.117   1.983  0.1251 -0.0356 -0.1787
20495W        W51711  10.678  25.607   7.727  0.0935 -0.4607  0.4156
20496W        W51712  21.245  13.134   0.012 -0.3482  0.3007  0.0820
20497W        W51713   4.528  21.499  10.491 -0.0444 -0.0090 -0.0783
20498W        W51714   0.213   1.484   2.437  0.1403  0.4382 -0.2724
20499W        W51715  22.483  20.777   2.408 -0.0381 -0.0745 -0.0726
20500W        W51716  14.001  12.577   2.489 -0.2079  0.0573  0.0806
20501W        W51717  16.026  24.744   0.409 -0.3812  0.0185  0.4632
20502W        W51718  24.926  13.557   1.776 -0.1600 -0.2227  0.0543
20503W        W51719   6.034   0.017   2.896  0.2367  0.1601 -0.0124
20504W        W51720   4.367  11.191  10.190  0.1212 -0.1147 -0.0104
20505W        W51721   2.897  18.287   9.757  0.1016  0.3457  0.0858
20506W        W51722   5.670   9.984   0.995 -0.2454 -0.1005  0.0142
20507W        W51723  20.747  18.743   1.131 -0.1090 -0.0068 -0.1225
20508W        W51724   1.873  10.211   2.789  0.0386 -0.0535  0.1510
20509W        W51725  17.956   7.484   8.259  0.3559  0.1903 -0.1471
20510W        W51726  22.388  12.974   1.953  0.1463  0.1886 -0.1197
20511W        W51727   8.032   1.017   9.352  0.0159  0.1817 -0.0114
20512W        W51728   0.153  19.565   1.926 -0.0373 -0.0712  0.2602
20513W        W51729  24.822   3.366   8.739  0.1846  0.0106 -0.0840
20514W        W51730  12.615  14.309   1.837 -0.1987  0.0392  0.4014
20515W        W51731  11.046   5.004  10.240  0.0597 -0.3291 -0.3513
20516W        W51732  20.780   2.972   7.744  0.1329  0.2853 -0.0934
20517W        W51733   1.976   0.634   2.863 -0.0012  0.0509 -0.0329
20518W        W51734   0.343   3.292  10.385  0.1134 -0.0757  0.2433
20519W        W51735  11.553  17.095   8.488  0.1207  0.0000  0.3945
20520W        W51736  14.193   4.343  10.220 -0.0995 -0.1045  0.2575
20521W        W51737  26.954  15.117   8.884 -0.2932  0.2318  0.1272
20522W        W51738  23.728  13.097   2.208 -0.2183  0.1145  0.2444
20523W        W51739   5.319   8.337   9.224 -0.1399 -0.1608 -0.0895
20524W        W51740  10.263  16.144   1.146  0.1609  0.0231  0.0152
20525W        W51741  18.209  25.984   9.644  0.2221  0.1746 -0.1037
20526W        W51742  22.449  26.799  10.261 -0.1050 -0.0890 -0.1483
20527W        W51743  13.420   4.826   9.919  0.1596  0.1669 -0.2581
20528W        W51744  22.401   9.892  10.318  0.0877  0.0351 -0.2025
20529W        W51745  18.382   1.040   8.596  0.2013 -0.0724  0.1550
20530W        W51746  17.486   8.739   0.229  0.0327 -0.1875 -0.4009
20531W        W51747  16.882  19.353   8.635 -0.5061  0.1558  0.0839
20532W        W51748   9.507  14.334   8.248  0.0979 -0.0953 -0.0272
20533W        W51749   5.980  18.849   8.602 -0.3100 -0.1074  0.1181
20534W        W51750  16.973   2.863   2.775 -0.0543 -0.0113  0.1476
20535W        W51751  10.611  19.038   8.462 -0.0539  0.4187 -0.2776
20536W        W51752  21.821  21.743   9.662  0.1125  0.2889  0.0721
20537W        W51753   5.406  13.540   0.158 -0.0659 -0.1052  0.0557
20538W        W51754  17.905   3.219   9.109 -0.0365  0.0993 -0.4989
20539W        W51755   2.804   4.708   3.716 -0.1190  0.0445 -0.0579
20540W        W51756   6.407   9.533   0.909  0.0133  0.0438 -0.0494
20541W        W51757  20.835  24.568   1.636 -0.1023 -0.1923  0.0596
20542W        W51758  12.214  21.427   1.454 -0.3210 -0.1029 -0.1631
20543W        W51759  25.976  21.071   1.659 -0.0285 -0.1358 -0.3190
20544W        W51760  12.379  21.906  10.024  0.1464  0.1680  0.0473
20545W        W51761   5.404  21.227   2.374  0.0974 -0.3525 -0.0280
20546W        W51762  26.184   3.945   9.740  0.0654 -0.2070 -0.0940
20547W        W51763   8.920  22.783  10.444 -0.0670  0.0786  0.0270
20548W        W51764  24.432  18.879   9.948 -0.0785 -0.2427 -0.1582
20549W        W51765  12.453  10.705   8.362 -0.3046 -0.1614  0.1726
20550W        W51766   8.664  13.306   1.019  0.2192 -0.0386  0.1652
20551W        W51767   7.497   1.323   2.063 -0.1903 -0.0450  0.0074
20552W        W51768   6.263   8.919   7.172  0.0454  0.1338  0.1850
20553W        W51769  17.919   3.130   0.637 -0.0454  0.0601  0.3613
20554W        W51770   5.494  23.367   3.236 -0.1266 -0.2163 -0.1820
20555W        W51771  16.762  14.784   1.377 -0.2311  0.1237 -0.1307
20556W        W51772   3.248  15.759   2.698 -0.0667  0.0090 -0.0855
20557W        W51773  14.159  14.266   8.316 -0.1340 -0.2406  0.2844
20558W        W51774   8.015  16.234   8.249 -0.2088  0.1841 -0.0304
20559W        W51775   1.038   0.155   0.824  0.2369  0.2228 -0.2772
20560W        W51776  27.031   7.411   8.712  0.0454 -0.4666 -0.0036
20561W        W51777  27.524  16.366   0.582  0.0509 -0.2209  0.1980
20562W        W51778  13.682  17.273  10.119  0.1222 -0.2989  0.1422
20563W        W51779  15.717  25.040   9.259  0.1270  0.1252 -0.1465
20564W        W51780  10.493  23.282   1.164 -0.3165  0.2333  0.0476
20565W        W51781  10.067  10.286   0.353 -0.0658 -0.1140  0.0024
20566W        W51782  21.357  26.090   7.975 -0.0649 -0.0267  0.0104
20567W        W51783   9.800   2.767   9.656  0.1234  0.1563  0.0150
20568W        W51784  19.262  13.388  10.339 -0.1685  0.3645 -0.0968
20569W        W51785  19.106   6.682   1.804 -0.1706  0.1286 -0.2618
20570W        W51786   2.210  16.598   2.693 -0.2465 -0.0631 -0.1437
20571W        W51787  24.022  27.382   1.792  0.1898 -0.1598 -0.0516
20572W        W51788  11.755   0.935   2.983 -0.0717  0.1541  0.0426
20573W        W51789   2.812  12.672   8.643 -0.0168 -0.2999 -0.0092
20574W        W51790   7.159  12.768   2.098 -0.0258  0.1031  0.0632
20575W        W51791   2.788   4.316   9.745  0.0800  0.1573  0.1773
20576W        W51792  21.946  20.439   1.976 -0.0140 -0.1537 -0.1860
20577W        W51793  27.581  14.850   2.040 -0.2359 -0.0036 -0.2587
20578W        W51794   0.326  11.941   1.196 -0.0089  0.0747 -0.1571
20579W        W51795   6.328  18.669   2.709 -0.3064  0.2264 -0.0685
20580W        W51796  20.794  14.970   7.886  0.2164 -0.0072  0.1098
20581W        W51797  11.453   0.058   0.666  0.2625 -0.2070  0.2699
20582W        W51798  13.882  27.095   8.165 -0.2285 -0.1377  0.0475
20583W        W51799  11.296  23.919   8.400  0.2685  0.3691 -0.2915
20584W        W51800  27.292  19.028   0.600 -0.0785 -0.0132 -0.2222
20585W        W51801   7.608  15.476   1.351  0.0071 -0.0670  0.0362
20586W        W51802   4.995  18.335   1.582 -0.2018 -0.2443  0.2005
20587W        W51803   3.675  10.989   2.427 -0.0462  0.0160  0.3323
20588W        W51804  26.803  22.413   8.705  0.0487 -0.2375  0.2284
20589W        W51805   3.645  25.671   0.262 -0.2192  0.2689  0.0075
20590W        W51806  14.023   2.982   3.599  0.2211 -0.0801  0.0593
20591W        W51807  16.526  13.513   0.240 -0.0608  0.1772 -0.1879
20592W        W51808   2.639  17.118   9.158 -0.0521  0.1308 -0.0088
20593W        W51809  26.652  20.698   0.959 -0.0929 -0.0067 -0.3877
20594W        W51810  10.181  23.613   0.065 -0.2038 -0.0412  0.1550
20595W        W51811   3.016  27.031   0.449  0.2087 -0.1299  0.0706
20596W        W51812   5.155   2.635  10.453 -0.1694  0.0343  0.2937
20597W        W51813  15.490  24.502   2.205  0.1461 -0.0539  0.3367
20598W        W51814   0.579   5.119   0.106 -0.1040 -0.0700 -0.1625
20599W        W51815   8.797  10.574   8.583  0.2102  0.1078  0.2786
20600W        W51816   2.160   6.216  10.499  0.2881 -0.1302  0.0689
20601W        W51817   3.683  14.746   6.801  0.0239  0.3238 -0.0189
20602W        W51818  14.731   8.252  10.124 -0.1624 -0.0601 -0.2978
20603W        W51819  27.209  23.934   1.746 -0.1372  0.0879 -0.1329
20604W        W51820  19.786   0.842   9.531 -0.1689 -0.0075 -0.0067
20605W        W51821  25.282   8.104   8.738 -0.1234  0.0660  0.2359
20606W        W51822  23.406   7.183   2.296  0.1315  0.0573 -0.0712
20607W        W51823  22.699   6.114   2.216  0.1493 -0.0626 -0.1185
20608W        W51824  26.063  11.474   0.502 -0.0981 -0.3005 -0.1740
20609W        W51825   9.433   9.838   2.322  0.0816 -0.1666 -0.1027
20610W        W51826   6.252  23.996   0.384  0.2751 -0.1265 -0.1950
20611W        W51827  24.094  23.432   9.994  0.1104 -0.1901  0.3941
20612W        W51828  15.996  25.068   8.488  0.0146 -0.0494  0.1343
20613W        W51829   7.557   2.193   0.402  0.1071 -0.1113 -0.3273
20614W        W51830   3.236   1.837   2.832 -0.2386  0.1048  0.1713
20615W        W51831  18.182   8.878   0.895  0.0567  0.0271  0.0471
20616W        W51832  13.192  19.969   9.949  0.0336  0.3879 -0.1418
20617W        W51833  10.127   9.321   8.639 -0.1685  0.0151  0.1891
20618W        W51834  23.794   8.677   9.731 -0.1521  0.0197 -0.1784
20619W        W51835  27.521  12.295   0.615 -0.0813  0.1898 -0.0244
20620W        W51836  14.213  21.193  10.451 -0.4248 -0.0233 -0.0122
20621W        W51837   2.171  13.656   9.784 -0.1375  0.1054  0.0427
20622W        W51838  13.107  11.097   9.902  0.0295 -0.2023 -0.0109
20623W        W51839   8.542  23.666   8.814  0.0605 -0.1490 -0.3388
20624W        W51840  21.408  16.431   2.851 -0.0938 -0.1262 -0.2511
20625W        W51841  10.267  12.899   1.350  0.0693 -0.0265  0.3102
20626W        W51842  24.936   7.736   3.021 -0.2573  0.0952 -0.2951
20627W        W51843   0.820  12.472   8.845  0.0097 -0.0213  0.0486
20628W        W51844  25.161  17.642   3.152 -0.0387  0.2435 -0.2868
20629W        W51845   3.386  11.173   8.815  0.0686  0.1409  0.2205
20630W        W51846   7.985   5.353   8.884  0.1471  0.0264  0.0276
20631W        W51847   1.757  21.188   1.765  0.0527  0.1595 -0.0122
20632W        W51848  17.672  22.964   0.694  0.3642  0.1942  0.1656
20633W        W51849   5.549  24.946  10.242  0.3863 -0.0329 -0.0675
20634W        W51850  12.165  18.555   3.147  0.3817 -0.0479  0.2132
20635W        W51851  12.992   3.456   8.723  0.0271  0.2072 -0.0808
20636W        W51852  25.134  14.687   0.874 -0.4628  0.0562  0.0087
20637W        W51853   4.216  12.413   9.112  0.0639 -0.0745 -0.1821
20638W        W51854  14.551  21.602   3.296 -0.0608 -0.2501  0.1951
20639W        W51855   2.302   8.957  10.195  0.2961 -0.1346  0.1996
20640W        W51856  19.762  16.121   1.990 -0.0956  0.0013  0.0219
20641W        W51857   9.627  10.323  10.131  0.2070 -0.3534  0.0554
20642W        W51858   1.187  15.465   2.004  0.1062 -0.0841 -0.3319
20643W        W51859  24.021   6.884   0.570  0.0982 -0.1018 -0.2012
20644W        W51860  20.701  25.524   1.950 -0.1693  0.3270  0.0733
20645W        W51861   4.469  18.366   1.489 -0.2444 -0.1758  0.0396
20646W        W51862   3.521   1.924   0.892  0.3344  0.1742 -0.0050
20647W        W51863  26.367  13.233   8.487 -0.3383  0.0109  0.0749
20648W        W51864  25.059  14.131   8.655  0.1826  0.1659  0.2603
20649W        W51865  16.591  18.464   3.392  0.1841  0.0037  0.2770
20650W        W51866  15.576  22.747   9.314  0.2292 -0.1593  0.2134
20651W        W51867  16.604  13.311   0.816 -0.0230 -0.0053  0.2566
20652W        W51868  11.764  15.638   0.036 -0.0692  0.2165 -0.0291
20653W        W51869  19.952  15.242   8.196 -0.2016 -0.0493 -0.0096
20654W        W51870  12.072  13.807   0.692 -0.0859 -0.0010  0.0324
20655W        W51871  11.778  10.765   1.337  0.0161 -0.0819  0.0175
20656W        W51872  20.058  23.599   9.820 -0.1455 -0.1372  0.0298
20657W        W51873   4.910  24.002   8.746  0.1694 -0.0886  0.2073
20658W        W51874  19.884  16.595   2.811 -0.0170  0.1834  0.0587
20659W        W51875  17.645   0.158   1.743  0.0672 -0.0009 -0.0635
20660W        W51876  19.552  23.761   2.682  0.0914 -0.3167  0.2244
20661W        W51877  13.096  26.552   3.169 -0.0755 -0.0506  0.0710
20662W        W51878  15.732  25.835   2.254  0.3391 -0.1084 -0.1457
20663W        W51879  24.676  13.437   9.660  0.1903 -0.4348  0.2235
20664W        W51880   5.181   9.087   8.344 -0.0642 -0.0893 -0.1108
20665W        W51881   9.713   7.355   0.922 -0.2492 -0.0435 -0.1537
20666W        W51882  19.647  16.098  10.462 -0.0026 -0.1922  0.0175
20667W        W51883  11.625  17.947   9.362  0.0988  0.2936  0.2471
20668W        W51884  11.411   7.165   8.912 -0.0358 -0.0771 -0.1290
20669W        W51885  24.904   0.502   2.405  0.4121  0.1251  0.1360
20670W        W51886  14.262  23.531   3.166  0.0709  0.0609  0.0263
20671W        W51887  12.871   5.597   8.802  0.0273 -0.0789  0.1769
20672W        W51888  20.344  14.237   0.024 -0.0032  0.3736 -0.1488
20673W        W51889  26.609  25.887  10.477  0.1190 -0.0545  0.0211
20674W        W51890  21.150   8.414   1.014  0.1622 -0.0385 -0.0170
20675W        W51891   9.555  10.712   8.531 -0.0190 -0.0105 -0.1892
20676W        W51892  10.361  23.373   0.593 -0.0524  0.2149 -0.0713
20677W        W51893   3.264  10.045   2.965  0.0893  0.2376  0.0157
20678W        W51894  22.960  25.417   8.340  0.0688 -0.0536  0.0446
20679W        W51895   8.778   7.495   0.874 -0.3298 -0.1345 -0.2377
20680W        W51896   5.939  23.202   8.738 -0.0572  0.1132 -0.0041
20681W        W51897  22.255  26.823   9.344 -0.2288  0.1618 -0.1045
20682W        W51898  16.562  16.543   8.685 -0.0410  0.0680 -0.1250
20683W        W51899  20.494   8.078   3.277 -0.0725  0.0280 -0.1134
20684W        W51900  24.890  13.818   0.158  0.1172  0.2692 -0.0582
20685W        W51901  10.657  10.061   1.352 -0.0431 -0.0699  0.1610
20686W        W51902   6.181  26.569   8.631  0.1959 -0.1230  0.1036
20687W        W51903  11.825   5.050   9.136 -0.1086 -0.1922 -0.0274
20688W        W51904  26.595  15.408   8.984 -0.0731  0.0498  0.0205
20689W        W51905  24.269  18.879  10.496 -0.1321  0.0067 -0.2252
20690W        W51906  15.419   2.039   9.129  0.1258  0.4516  0.2280
20691W        W51907   8.840   2.631   0.246 -0.0648  0.0402  0.2318
20692W        W51908  12.127   7.766   9.461  0.2241 -0.1178  0.0512
20693W        W51909  18.287  25.752   2.616  0.1240 -0.1143 -0.1348
20694W        W51910   4.828  22.148   8.494  0.0791  0.1210 -0.0915
20695W        W51911   6.595  20.629   2.714  0.0730  0.0744 -0.2672
20696W        W51912   9.981   1.824   1.752  0.0953 -0.3572 -0.1382
20697W        W51913   4.648  25.889   0.383 -0.1962 -0.0436  0.2069
20698W        W51914   9.226  22.260   3.716  0.2446  0.0594  0.0001
20699W        W51915   2.845   4.510   9.296  0.2808  0.0006 -0.1264
20700W        W51916   0.881  11.172   1.672  0.0689  0.1244 -0.3012
20701W        W51917   5.279  10.903   9.156 -0.1079 -0.1212  0.3167
20702W        W51918   4.897  17.585   2.009 -0.1957  0.0587 -0.1100
20703W        W51919   1.078  27.353   1.133  0.0716 -0.0233 -0.1139
20704W        W51920  23.175   2.331   9.791 -0.1635  0.1284 -0.0351
20705W        W51921  21.769  12.770   8.532 -0.2925  0.0188  0.2393
20706W        W51922   3.249   9.298   9.543  0.0472  0.0297  0.0952
20707W        W51923  26.517  24.328   0.548  0.0444 -0.2635 -0.1992
20708W        W51924  15.865  18.887   8.310 -0.2553 -0.0034  0.2647
20709W        W51925  24.484  11.859   8.120 -0.1455  0.3100  0.0543
20710W        W51926  24.525  18.420  10.176  0.2683  0.1235  0.1535
20711W        W51927  27.138   8.382   9.575 -0.0097 -0.0417  0.0485
20712W        W51928   3.284  26.545   2.976 -0.1116  0.1377 -0.2349
20713W        W51929  14.968  17.272   2.787  0.0880 -0.1149 -0.0601
20714W        W51930   7.684  15.811   9.692  0.0226  0.0326  0.1843
20715W        W51931  16.100   5.715   1.394  0.0720  0.1233  0.1021
20716W        W51932   6.800  17.419   0.413  0.2998 -0.2389  0.1692
20717W        W51933  20.299  25.353   3.077  0.2466  0.0555  0.1985
20718W        W51934   6.161  23.952   3.656 -0.1568 -0.3247 -0.0996
20719W        W51935   0.337   4.711   9.591  0.1666  0.1301 -0.2255
20720W        W51936  12.849  21.137  10.381  0.1746 -0.2161 -0.1211
20721W        W51937  22.742   9.390   0.770 -0.0671 -0.4954  0.0551
20722W        W51938  22.723  13.906   2.431  0.1851  0.1552  0.0510
20723W        W51939  23.976   1.722   9.908 -0.1377  0.1098  0.0547
20724W        W51940   2.537  12.593   0.682  0.3777 -0.0854 -0.2092
20725W        W51941   3.887  21.727   1.879 -0.0067 -0.2287 -0.0318
20726W        W51942   2.250   2.097   2.784  0.1221  0.2910 -0.1372
20727W        W51943  17.396   1.308   8.439  0.0064 -0.0083  0.0525
20728W        W51944  15.010  23.492   8.224 -0.0077 -0.2765  0.2263
20729W        W51945   7.569   4.497   7.834 -0.2964  0.0201  0.2486
20730W        W51946   7.216   0.795  10.452 -0.1230  0.2046  0.1270
20731W        W51947  14.550  26.334   2.502  0.0230  0.0304  0.1565
20732W        W51948  16.428   4.361   2.888 -0.1158 -0.0639 -0.0038
20733W        W51949  13.503  23.557   0.150  0.0073  0.2126  0.2104
20734W        W51950  22.085  12.977   1.229 -0.0141 -0.0977  0.3944
20735W        W51951   3.681   7.814  10.229 -0.2156  0.0910 -0.0624
20736W        W51952   7.166  18.570   7.948 -0.2285 -0.3584  0.0119
20737W        W51953  20.321  21.962   0.488 -0.1379  0.1820  0.2206
20738W        W51954  26.262  24.977  10.450 -0.1306 -0.0700  0.2364
20739W        W51955  23.565  18.512   3.265 -0.1906 -0.1734 -0.2840
20740W        W51956  26.072  25.351   0.313 -0.0512  0.2058  0.0431
20741W        W51957  26.624   3.146   2.839 -0.3060  0.1378 -0.1879
20742W        W51958   9.051  21.942   1.208 -0.1135 -0.3650 -0.1558
20743W        W51959   1.242   5.062   3.301 -0.1343  0.0775  0.3114
20744W        W51960   3.570  16.221   2.774 -0.0630  0.3993  0.1550
20745W        W51961  24.686   7.974   7.639  0.0418  0.1990  0.0054
20746W        W51962   7.282   0.093   8.342  0.1502  0.0447  0.0459
20747W        W51963  22.956  14.291   9.818 -0.0405 -0.2207 -0.0196
20748W        W51964   7.341  16.370  10.482 -0.1239  0.0083  0.1374
20749W        W51965   6.248  14.095   8.677  0.0513  0.0972  0.1365
20750W        W51966  20.149   5.689   7.534  0.1016 -0.1112 -0.1312
20751W        W51967  17.888  13.392   7.874 -0.0113 -0.1479 -0.1464
20752W        W51968  20.779   3.165   9.412 -0.1591  0.3589 -0.1319
20753W        W51969  24.885   2.942   3.286  0.3811 -0.0394 -0.3235
20754W        W51970  16.939  19.441   2.415 -0.1801  0.3141 -0.1577
20755W        W51971   2.168   6.580   2.879  0.1193 -0.0794 -0.1327
20756W        W51972   1.243  27.341   2.112 -0.0070  0.0545  0.2398
20757W        W51973  10.191   0.346   1.992 -0.1410 -0.2947  0.0067
20758W        W51974  16.424  26.281   9.738  0.0340 -0.1296  0.3487
20759W        W51975  11.191   3.840   1.940  0.1779  0.1909 -0.0521
20760W        W51976   6.888  24.900   1.189 -0.1080 -0.3335  0.3241
20761W        W51977  23.989  19.845   2.198  0.1951 -0.0283  0.1046
20762W        W51978  21.543  12.680   7.957 -0.0575 -0.1551  0.2862
20763W        W51979  25.939  16.926   0.292  0.1173  0.3346 -0.0925
20764W        W51980  17.253  12.212   0.179  0.2271 -0.3619 -0.1653
20765W        W51981  15.236  24.720   2.882  0.0175 -0.2389 -0.0692
20766W        W51982   8.075  21.367   2.102  0.1556  0.0871  0.0386
20767W        W51983  26.312  27.307   1.641  0.1892 -0.2267 -0.2173
20768W        W51984  13.786   9.843   8.754 -0.1684 -0.0690  0.3009
20769W        W51985   2.236  20.955   7.861 -0.0809 -0.1155  0.0881
20770W        W51986  16.125   3.011   1.749  0.1824  0.0148 -0.2020
20771W        W51987  23.550  15.942   8.112  0.2599 -0.0393 -0.0470
20772W        W51988  15.724  22.668  10.324 -0.0030  0.3309  0.1413
20773W        W51989  15.914   9.877   0.460  0.2679  0.1754 -0.3673
20774W        W51990  20.215  17.047   9.154  0.1509 -0.1889  0.0882
20775W        W51991   5.205   3.100  10.086  0.3423 -0.0541  0.1046
20776W        W51992   9.251  21.493   8.997  0.2106 -0.0344  0.2920
20777W        W51993   9.515  22.063   0.321  0.0734 -0.1983 -0.0045
20778W        W51994  11.920   2.471   1.996 -0.0914 -0.3037 -0.0419
20779W        W51995  10.351  27.419   0.745 -0.0810  0.0011 -0.1385
20780W        W51996   5.330  14.337   8.375  0.4171  0.0735 -0.0726
20781W        W51997   9.798   3.703   9.745 -0.2943 -0.0602 -0.2010
20782W        W51998   7.833   4.921   1.823  0.1164 -0.1043 -0.1346
20783W        W51999   5.764  27.400   0.858  0.0689  0.2557  0.1462
20784W        W52000  12.497  20.929   7.205  0.0594  0.0171  0.2110
20785W        W52001  23.299  19.063   8.857  0.0363  0.1477  0.0049
20786W        W52002   3.309  10.121   7.865  0.0514  0.1038 -0.0580
20787W        W52003   5.698   4.842   2.672  0.1037  0.2270 -0.0321
20788W        W52004  13.168  27.530  10.011  0.0644  0.1108  0.3536
20789W        W52005   2.668  14.045   0.527  0.1549  0.0962  0.2268
20790W        W52006   2.540  13.375   2.834  0.0270 -0.2696  0.3073
20791W        W52007   1.804  23.387   3.785 -0.0277  0.3248 -0.3526
20792W        W52008  20.719  26.053   1.142  0.0075  0.0242 -0.3272
20793W        W52009  13.938  16.177  10.522  0.3839  0.3283 -0.1146
20794W        W52010  15.454  12.565   2.149  0.3258  0.0098  0.2267
20795W        W52011  10.600   8.155   9.338 -0.0491  0.2343  0.0042
20796W        W52012   5.855   0.125  10.516 -0.1301 -0.1042 -0.0905
20797W        W52013  27.331   7.377   0.143 -0.2107 -0.1242 -0.0996
20798W        W52014   6.242   1.049   1.889  0.0774 -0.2059  0.0112
20799W        W52015  20.546  14.653   0.585  0.1592  0.1116 -0.0608
20800W        W52016  21.943  10.935   9.530 -0.0569  0.5355 -0.0310
20801W        W52017   8.350  16.078  10.367  0.0420 -0.0723  0.0896
20802W        W52018  14.898  10.450   1.817  0.2077 -0.0470 -0.2096
20803W        W52019  18.350  21.185   2.701 -0.1671  0.1651 -0.1327
20804W        W52020  12.592   9.513   8.374  0.0668  0.0035  0.0145
20805W        W52021   2.719  23.222   7.887 -0.3101  0.1194 -0.1575
20806W        W52022  26.371  22.133  10.386 -0.2829 -0.0415 -0.1853
20807W        W52023  19.156  10.562   7.825 -0.0537 -0.1808 -0.2986
20808W        W52024   0.380  18.557   0.793  0.3183 -0.0848  0.1923
20809W        W52025  16.840  14.077  10.134  0.2232 -0.2305 -0.3904
20810W        W52026  13.823   8.557   2.059  0.1116  0.1784 -0.1196
20811W        W52027   4.557  22.494   9.467 -0.0630 -0.0333  0.1620
20812W        W52028   2.468   7.312   7.700 -0.0083  0.0628  0.0694
20813W        W52029  11.762   2.748   7.975  0.0561  0.2302  0.1757
20814W        W52030  16.098  13.183   7.926  0.1057 -0.2766 -0.4044
20815W        W52031  13.034  25.481   8.634 -0.0127  0.0915 -0.1065
20816W        W52032   3.520  20.678   8.973 -0.2984  0.2008 -0.1547
20817W        W52033  22.017   2.276   3.186  0.3464 -0.1916  0.0569
20818W        W52034   3.797  15.084   9.036 -0.0876 -0.3888  0.2836
20819W        W52035  11.590  21.951   3.730  0.1853  0.0434 -0.2016
20820W        W52036   5.085  23.019   1.097  0.1336  0.5078 -0.1670
20821W        W52037  27.525  15.485   0.660 -0.0488  0.0565  0.1873
20822W        W52038   6.537  26.832   3.645 -0.1377 -0.0513 -0.1486
20823W        W52039  20.305   2.030   2.215  0.2520  0.0730 -0.0784
20824W        W52040  13.113   3.316   3.457 -0.2504  0.2862 -0.2294
20825W        W52041   8.412   9.049   2.663 -0.0514 -0.1406  0.1633
20826W        W52042  24.891  24.022   0.588  0.2080 -0.1610  0.1005
20827W        W52043  18.591  22.953   0.362 -0.0362  0.0464  0.2691
20828W        W52044  10.297  13.134   8.262  0.1627 -0.3902  0.3040
20829W        W52045   3.761  18.462   9.064 -0.0812  0.0402  0.0797
20830W        W52046  12.838   3.628   1.017  0.2387 -0.0774  0.2652
20831W        W52047   5.859  18.490   2.681 -0.1098 -0.0451  0.0023
20832W        W52048  12.583  17.565   9.791  0.0068 -0.0778  0.1366
20833W        W52049  20.438  18.173   2.798  0.2821 -0.1454  0.3144
20834W        W52050  18.572  20.721   2.786 -0.2973 -0.0441 -0.1107
20835W        W52051  14.383   1.802   0.694  0.0318  0.2021  0.3665
20836W        W52052   7.390  14.609   2.349  0.0296  0.0719  0.1017
20837W        W52053  26.655  13.934  10.502 -0.0587 -0.1432  0.2929
20838W        W52054   3.432  18.793   2.518  0.1529 -0.0467 -0.1939
20839W        W52055   0.034   3.352   9.348 -0.0348 -0.1482 -0.0261
20840W        W52056  11.591  16.756   0.008 -0.2093 -0.0272  0.0581
20841W        W52057  25.620  10.074   0.177  0.0458 -0.1317 -0.0447
20842W        W52058  17.960   6.611   9.306 -0.0134  0.0797 -0.2404
20843W        W52059  23.288  19.289   3.032 -0.1420  0.0251  0.0479
20844W        W52060  22.982  14.054   2.788 -0.1813  0.2365  0.0286
20845W        W52061  12.196  23.736  10.299  0.0908  0.3169 -0.0635
20846W        W52062   7.323   8.734   9.187  0.1882 -0.2446 -0.2472
20847W        W52063   8.493  22.784   2.189  0.3815 -0.2718 -0.2175
20848W        W52064   5.862  24.210   9.957  0.0077  0.1088  0.0538
20849W        W52065  12.716  25.301   7.744 -0.0272  0.0835  0.0473
20850W        W52066   0.599  11.098   2.448 -0.1174  0.3165 -0.0110
20851W        W52067  12.257  18.479   2.217 -0.2417 -0.0384 -0.0689
20852W        W52068  10.624   7.838   3.220  0.2013 -0.3357 -0.0178
20853W        W52069   6.637  10.887   2.742  0.3878 -0.2798 -0.3548
20854W        W52070   3.014   8.890   9.063  0.0027 -0.0466  0.0166
20855W        W52071  26.614   5.084   1.634 -0.1203 -0.3730 -0.0716
20856W        W52072  21.284   6.409   2.638 -0.1493  0.0199 -0.1874
20857W        W52073   3.707   1.658   9.015 -0.1675  0.0293 -0.2084
20858W        W52074  12.842  23.360   2.405 -0.1210 -0.1216 -0.1058
20859W        W52075  10.315  23.092   8.644 -0.4427  0.0805 -0.0159
20860W        W52076   6.958  19.625   0.094  0.0240  0.2180 -0.1739
20861W        W52077  26.287  20.851   9.420 -0.1330  0.1402  0.0533
20862W        W52078  16.974   3.700   1.569 -0.1652  0.0510  0.0248
20863W        W52079  18.033   0.601   8.114 -0.1855  0.0381  0.4479
20864W        W52080  17.985  23.192   0.980  0.1792  0.0856 -0.2815
20865W        W52081  25.099  19.661   9.241  0.3117 -0.1059 -0.0361
20866W        W52082  27.572  23.486   1.619 -0.0183 -0.2302 -0.0310
20867W        W52083  22.169   1.389   9.999 -0.1855  0.1852 -0.2134
20868W        W52084  23.880  21.022   0.995 -0.2003  0.0210 -0.0437
20869W        W52085  22.943  20.976   2.380  0.4022 -0.2131 -0.0887
20870W        W52086  20.113  18.336   1.483 -0.0844 -0.2910 -0.1542
20871W        W52087  20.684   4.954   7.786 -0.2463  0.1031 -0.0393
20872W        W52088   7.304   8.944   1.753 -0.0433  0.1601  0.1553
20873W        W52089   8.868   9.417   3.344 -0.0472 -0.1894 -0.3272
20874W        W52090  26.050   6.825   0.672 -0.0007 -0.1110 -0.1892
20875W        W52091   3.448   7.115   0.356  0.1870  0.0943 -0.0785
20876W        W52092   5.373  17.430   9.855 -0.1368 -0.1023 -0.0645
20877W        W52093   7.486   9.285   7.943  0.0919  0.0292 -0.2108
20878W        W52094  21.299   3.179   0.692 -0.4399 -0.2543 -0.2794
20879W        W52095  23.456  27.542   0.804  0.0730  0.0177  0.1883
20880W        W52096  20.907  21.628   7.955 -0.1443 -0.0960  0.0432
20881W        W52097   5.707  10.263   2.559  0.2514 -0.2681 -0.2317
20882W        W52098   6.994   2.934   1.624  0.0819 -0.1798  0.0639
20883W        W52099  16.681  11.664   3.075 -0.1570 -0.1035 -0.1547
20884W        W52100  19.762   2.221   3.770  0.0582  0.1437 -0.3788
20885W        W52101  15.046  13.538   3.129  0.2095 -0.1575 -0.2947
20886W        W52102  27.152   2.332   2.033  0.0040  0.1107  0.0755
20887W        W52103   7.186   6.275   2.591 -0.0253  0.0235 -0.0118
20888W        W52104   8.590  14.918  10.478 -0.3651  0.0957  0.1328
20889W        W52105  12.722  16.606   1.653 -0.1194 -0.1037 -0.2501
20890W        W52106  26.862  26.806   2.879 -0.1073  0.3284  0.1150
20891W        W52107   5.509  14.641   2.562  0.0544 -0.3513  0.0382
20892W        W52108  12.356   5.048   2.466  0.0570  0.1771 -0.0356
20893W        W52109   2.842  19.414   9.205  0.1484  0.1176  0.1441
20894W        W52110   8.636   4.010   0.294  0.0070 -0.0323  0.1388
20895W        W52111   8.666  19.957   1.787  0.0569  0.2537  0.1666
20896W        W52112  27.437   0.754   8.393 -0.2978 -0.1614  0.2561
20897W        W52113  22.317  14.296   8.460  0.1731  0.0698  0.2418
20898W        W52114  22.603  24.338   0.363  0.1808 -0.1854  0.3357
20899W        W52115   8.201  20.976   1.151 -0.3018  0.0489  0.0270
20900W        W52116  20.632  13.923   9.413 -0.1354  0.1655  0.0476
20901W        W52117  23.205  17.483   2.734  0.0687  0.4109  0.0727
20902W        W52118   9.450  12.236   9.787 -0.3542 -0.1373 -0.2870
20903W        W52119  13.683   8.993   9.127  0.0237  0.1435  0.1653
20904W        W52120   8.379  25.589   0.669  0.3359  0.0479  0.3312
20905W        W52121  26.267   7.310   3.109 -0.0300 -0.1122 -0.0280
20906W        W52122   4.594  11.519   7.496  0.1094  0.0333 -0.0419
20907W        W52123  17.885  13.233   2.171  0.2896  0.2374 -0.0616
20908W        W52124  11.163  20.519   3.372 -0.0143  0.0428 -0.1572
20909W        W52125  10.959   8.399   0.385  0.1958 -0.3351  0.5059
20910W        W52126   5.030  22.630   2.178 -0.1537 -0.2013 -0.0978
20911W        W52127   0.498  25.574   8.125  0.1680 -0.2841  0.1895
20912W        W52128   8.432   4.357   8.331 -0.2347 -0.0183 -0.1494
20913W        W52129  24.347  15.037  10.077  0.0724  0.1508 -0.3747
20914W        W52130  10.365  20.916   1.844 -0.1993  0.2315 -0.1733
20915W        W52131  21.204  26.144   8.431 -0.0389 -0.2310  0.1604
20916W        W52132  13.267  26.924   2.353  0.1502  0.0185  0.1005
20917W        W52133   5.737  11.066   3.153  0.1655 -0.0632  0.1154
20918W        W52134  10.814   1.875   7.686  0.0648 -0.2905 -0.2106
20919W        W52135  15.357   7.034   7.793  0.1647 -0.0636  0.1878
20920W        W52136   8.913   9.741   9.743  0.2250 -0.1772 -0.2296
20921W        W52137  10.436  23.547   8.272  0.0087  0.2814 -0.1696
20922W        W52138  26.929   6.649   9.266  0.1082 -0.0823 -0.1353
20923W        W52139  11.832   3.789   1.202  0.1144  0.0704  0.1889
20924W        W52140   6.663   1.594   0.659  0.1487 -0.0541 -0.1188
20925W        W52141  14.961   1.861   3.846  0.3297  0.0044  0.0443
20926W        W52142   4.114   7.033   1.098 -0.1783 -0.2596  0.1646
20927W        W52143  12.835  14.117   8.753  0.0132 -0.4431 -0.0961
20928W        W52144  20.996  17.033   1.538 -0.1585  0.0928 -0.2864
20929W        W52145   1.507   9.954   2.509 -0.2476 -0.1817  0.0273
20930W        W52146  13.908  25.281   0.158  0.1967 -0.1177 -0.1957
20931W        W52147   7.208   7.867   2.862  0.1198  0.0680 -0.0711
20932W        W52148   1.280   0.706  10.183 -0.2604 -0.0135  0.0641
20933W        W52149  15.628  24.707   8.130  0.1633  0.1005 -0.0905
20934W        W52150   8.244  21.641   0.446 -0.1770  0.1089 -0.1524
20935W        W52151  19.099   5.216   8.788 -0.0710  0.0567  0.2083
20936W        W52152   5.918   2.150   8.920 -0.0484  0.0941  0.2150
20937W        W52153  15.873   3.009   0.190 -0.0370  0.1554  0.2779
20938W        W52154  19.749  21.404   9.417 -0.1390 -0.1928  0.3528
20939W        W52155   6.547  12.773   2.393  0.2068  0.1629 -0.2295
20940W        W52156  20.180  18.525  10.379  0.0933 -0.2702 -0.0637
20941W        W52157  10.306  20.237   7.783  0.2198 -0.1001 -0.3079
20942W        W52158  27.243   0.057   9.255  0.0593  0.0116  0.1145
20943W        W52159  19.389   2.124   1.057 -0.0389  0.0150 -0.1791
20944W        W52160  17.482   3.768   2.592 -0.0182 -0.1760  0.2324
20945W        W52161   0.157  25.324   9.400  0.2000  0.0479  0.0364
20946W        W52162   0.998  17.815   3.601 -0.1136 -0.2134  0.2392
20947W        W52163  25.788   2.043   3.750  0.2588 -0.1831  0.0879
20948W        W52164  25.633  24.997   7.840 -0.1615  0.0924  0.1458
20949W        W52165  18.214  19.408   0.270  0.0763  0.2417 -0.2414
20950W        W52166  25.788   6.866   8.597 -0.4122  0.0152 -0.1416
20951W        W52167  27.260  26.720  10.385 -0.4195  0.0124  0.0659
20952W        W52168   9.368  19.651   0.066  0.0716  0.0111 -0.0510
20953W        W52169  15.085  23.179   8.626  0.0605  0.0474 -0.6009
20954W        W52170  20.057  16.222   2.399  0.3030  0.0224  0.3876
20955W        W52171   4.324  12.779   1.859 -0.0019  0.1678 -0.2726
20956W        W52172   2.835  21.643   3.796  0.3050  0.0700  0.2356
20957W        W52173  22.232   8.374   7.727  0.0212  0.1866  0.3120
20958W        W52174   4.758  17.397  10.493  0.0358  0.2492 -0.0071
20959W        W52175   2.872  22.978   3.017  0.1778  0.1334 -0.3905
20960W        W52176  11.135   1.459   1.375  0.2497  0.1743  0.2660
20961W        W52177  26.928   4.386   9.659  0.1356  0.0077  0.2175
20962W        W52178  18.366   0.916   9.774 -0.1316 -0.3482  0.3343
20963W        W52179  26.826  22.421   0.112  0.2056  0.1562  0.0415
20964W        W52180   2.468   3.210   2.365 -0.1865 -0.1587  0.1236
20965W        W52181   2.712  20.073   0.383 -0.1760  0.2743 -0.0819
20966W        W52182   0.897  12.925   1.193  0.3789 -0.2160 -0.1217
20967W        W52183  10.083  14.108   1.510  0.1416  0.0513 -0.2739
20968W        W52184  25.403   4.015   0.782  0.0136 -0.2087 -0.1016
20969W        W52185  12.558   8.381   2.224 -0.1367  0.5322  0.3756
20970W        W52186   0.109   7.248   0.434  0.0251 -0.1858 -0.3350
20971W        W52187   5.260  23.320   1.472  0.1447 -0.1804 -0.1203
20972W        W52188  20.675  12.999   3.134 -0.0385  0.0986  0.0170
20973W        W52189  13.121   5.190   8.331  0.0795  0.1265 -0.2696
20974W        W52190  16.220  11.821   2.372 -0.1374 -0.1032  0.3669
20975W        W52191  24.710  21.950   9.899 -0.0300  0.1789  0.1411
20976W        W52192  15.285   1.888   3.413 -0.1628  0.1202 -0.1635
20977W        W52193  21.663  11.680   1.199  0.1449 -0.3346 -0.0430
20978W        W52194  20.648   9.762   8.030 -0.0078 -0.0434  0.0787
20979W        W52195  10.813  19.013  10.007 -0.4021  0.2988  0.2436
20980W        W52196  23.546   6.267   8.305 -0.0004 -0.2584 -0.3408
20981W        W52197   4.482   4.810   8.941  0.1928 -0.2443  0.0344
20982W        W52198   8.868  10.055   1.210 -0.4133 -0.0034 -0.2199
20983W        W52199  11.398  12.892   6.802  0.1057 -0.1725 -0.0384
20984W        W52200  22.336  12.531   1.130  0.2408  0.0532 -0.0001
20985W        W52201   8.794  21.503   1.303 -0.0406 -0.1755  0.3886
20986W        W52202  10.773  13.067   1.485  0.3076  0.1871 -0.2146
20987W        W52203  18.773   1.196   8.235 -0.1897  0.3521  0.1730
20988W        W52204  19.755   1.148   7.357  0.1128 -0.0435  0.1916
20989W        W52205  22.185  21.134   2.622 -0.0573  0.0004  0.3063
20990W        W52206  25.737  25.032   7.333  0.0772  0.1508 -0.1112
20991W        W52207   6.771   0.708  10.194 -0.2145 -0.0930 -0.1982
20992W        W52208  22.963   9.625   3.774 -0.1227  0.0713 -0.0094
20993W        W52209  16.128   3.191   1.289 -0.2401 -0.3153 -0.0996
20994W        W52210  14.669  11.448   0.028  0.0395 -0.0771  0.0785
20995W        W52211  17.083  17.684   0.101  0.2767 -0.1974 -0.0794
20996W        W52212   6.356   9.029   2.600 -0.1446 -0.0167  0.2128
20997W        W52213  23.814   1.389   2.133  0.0464 -0.3276 -0.3559
20998W        W52214  10.093   9.229   7.816  0.0193 -0.1206  0.0076
20999W        W52215  20.059  24.241   1.624  0.2907 -0.1238  0.2954
21000W        W52216  21.653   2.706   1.912  0.0730 -0.0609 -0.0347
21001W        W52217  27.191  15.034   0.514  0.1092  0.3002  0.1225
21002W        W52218  21.168  13.167   1.805 -0.0951 -0.4341 -0.0084
21003W        W52219  15.918   5.303   2.646 -0.0578 -0.2541  0.0860
21004W        W52220   2.008  23.047   2.791  0.1919  0.1970 -0.0585
21005W        W52221  16.891   0.484   8.882 -0.1252  0.0718 -0.2607
21006W        W52222   1.507   3.638   9.850  0.0108  0.2519  0.1170
21007W        W52223   2.157  16.193   8.130  0.1076 -0.2717 -0.1770
21008W        W52224   0.553  20.370   2.021  0.0779  0.1536 -0.1253
21009W        W52225   4.376  23.994   1.869 -0.3444  0.0497  0.3038
21010W        W52226   4.774  13.534   9.111  0.2136  0.1961 -0.1438
21011W        W52227  17.931   6.729   9.765  0.0002 -0.5616 -0.2308
21012W        W52228  21.564   3.730   2.851 -0.1562  0.1081  0.0347
21013W        W52229   0.966  14.829   0.365 -0.0827  0.2467 -0.0485
21014W        W52230  26.621  19.885   3.219  0.0966  0.3229  0.1162
21015W        W52231  25.230  13.815   2.854  0.0448 -0.4037  0.2881
21016W        W52232  19.847   1.861   1.452 -0.0588  0.1506  0.1943
21017W        W52233   2.138   2.919   8.868  0.2027 -0.2023  0.0513
21018W        W52234  18.497  22.382   9.367  0.0329 -0.1259 -0.0289
21019W        W52235  21.265  18.058   9.398  0.0502 -0.0965  0.0854
21020W        W52236   9.667  15.544   8.374 -0.2699 -0.2156 -0.3345
21021W        W52237  12.159   4.325   0.169 -0.5378  0.0679 -0.1118
21022W        W52238   9.862  11.382   0.129 -0.0331 -0.0705 -0.0554
21023W        W52239  14.240  10.750   2.246 -0.0040  0.2851 -0.1157
21024W        W52240   2.584   9.440   1.406 -0.0282  0.0022  0.2984
21025W        W52241   2.328  16.918  10.223  0.0703  0.0381 -0.1994
21026W        W52242   8.774  22.810   9.177  0.1096 -0.1435 -0.0683
21027W        W52243   9.402   5.225  10.364  0.5658  0.1171  0.1733
21028W        W52244   7.493  17.317   2.552  0.1895 -0.1310 -0.3417
21029W        W52245  24.533  15.324   9.398  0.0385  0.3111 -0.0376
21030W        W52246   8.339  12.174   7.833  0.4120 -0.2901 -0.1802
21031W        W52247  20.709  23.447   9.884  0.2729  0.1234  0.1905
21032W        W52248   8.567  10.295   1.690  0.0803  0.1237  0.4175
21033W        W52249  22.088  22.684   1.505  0.2478  0.0481  0.1595
21034W        W52250  22.580   1.060   2.976 -0.0712  0.1237 -0.0377
21035W        W52251   9.146   3.410   0.534  0.1255 -0.1660  0.0155
21036W        W52252  11.517   8.846  10.315 -0.1234 -0.0251  0.0279
21037W        W52253  25.572   8.535   2.467 -0.1342  0.0203 -0.0004
21038W        W52254   4.843   2.297   1.574  0.0155  0.0069  0.3042
21039W        W52255   7.132   2.276   0.125 -0.0328 -0.0961 -0.1216
21040W        W52256   9.810  25.895   9.708 -0.3175 -0.0351  0.0832
21041W        W52257   7.685  10.754   7.383  0.0811 -0.1375  0.1934
21042W        W52258  12.121  23.333   8.359  0.1355 -0.2634  0.2965
21043W        W52259   6.586   3.116   0.054 -0.1546 -0.0035  0.1152
21044W        W52260  10.089  12.490   8.402 -0.0460  0.0232  0.1401
21045W        W52261   3.608  23.102   2.241  0.0575 -0.1052 -0.4553
21046W        W52262  10.709  20.477   7.465 -0.4290  0.0532  0.0605
21047W        W52263  18.415   7.083   1.141  0.0727 -0.0389  0.0368
21048W        W52264  15.596   4.224   0.444  0.2341 -0.1121  0.0409
21049W        W52265  26.650   0.553   1.377 -0.3079  0.0187 -0.2440
21050W        W52266  23.703   1.698   7.957 -0.1279 -0.0217 -0.1222
21051W        W52267   8.797   0.181   2.199 -0.0416 -0.0107 -0.1386
21052W        W52268  21.332  24.610   9.125  0.2654  0.2095  0.1451
21053W        W52269  22.547  24.131   2.570 -0.1480  0.0299  0.2943
21054W        W52270   1.439   3.439   1.024  0.0794  0.0128 -0.0137
21055W        W52271   9.883  19.973   9.542 -0.1137 -0.2510  0.1024
21056W        W52272  23.437  27.534   9.655  0.0589 -0.0055 -0.1685
21057W        W52273   3.457   1.687   0.203 -0.2400  0.3516 -0.2081
21058W        W52274   3.793  22.929   7.458  0.1601  0.0881  0.0383
21059W        W52275   5.385  15.494   1.609 -0.1184 -0.0417  0.1421
21060W        W52276  27.424   6.602   9.004  0.3086 -0.0199  0.1905
21061W        W52277  10.832   0.768   8.068 -0.1403  0.0790 -0.3297
21062W        W52278   8.234  16.559   3.234  0.0526 -0.2570  0.0220
21063W        W52279  10.710  14.861   8.063 -0.0281  0.2076  0.1502
21064W        W52280  12.290  17.125   8.473 -0.2247  0.0052  0.1104
21065W        W52281  14.372   6.257   9.849 -0.0202 -0.0835 -0.1209
21066W        W52282  16.698   3.879   1.104  0.3296 -0.1842 -0.2319
21067W        W52283   8.214   7.091   8.399  0.0761  0.2118 -0.1227
21068W        W52284  20.388  14.558  10.160 -0.0699  0.0802  0.4230
21069W        W52285  21.367   5.427   2.673  0.2914 -0.1510  0.0692
21070W        W52286   2.201  23.455   8.196  0.1167 -0.3198  0.2127
21071W        W52287   5.154  11.768   8.583  0.1892  0.1011  0.2636
21072W        W52288   3.652  22.569   0.819  0.0959 -0.1047 -0.0882
21073W        W52289   2.586   1.727   0.507 -0.1029  0.0304 -0.5311
21074W        W52290   3.907   2.877   8.818  0.3200 -0.0269 -0.1686
21075W        W52291  16.821   2.340   1.986  0.2178 -0.2779 -0.4553
21076W        W52292  24.065  23.422   8.167  0.1765 -0.0460 -0.1601
21077W        W52293  15.281   9.452   1.615 -0.1200 -0.3152  0.1617
21078W        W52294  19.100  27.173   0.931  0.0241  0.0425 -0.1868
21079W        W52295  14.927   4.546   3.283  0.0282 -0.2475  0.1683
21080W        W52296  25.447  12.771   2.235 -0.0042  0.0409 -0.1925
21081W        W52297   2.719  14.304   7.837  0.4058 -0.1203 -0.1182
21082W        W52298   2.262   0.846   1.341  0.1168 -0.1909 -0.1176
21083W        W52299  17.490  13.854   1.751 -0.0866  0.0911 -0.0171
21084W        W52300   6.265  16.039   2.990  0.0176  0.0295  0.1216
21085W        W52301   5.403   1.859   2.689 -0.1745 -0.0228  0.0226
21086W        W52302  16.044  25.716   3.353  0.1438  0.0548 -0.1973
21087W        W52303  21.148  23.736   9.014 -0.0781  0.1147 -0.1468
21088W        W52304   1.696  12.831   0.203 -0.0432  0.1578  0.2883
21089W        W52305  12.223   0.755   9.473  0.2358  0.0153  0.0537
21090W        W52306   1.250   7.975   8.571  0.2048 -0.0490  0.1762
21091W        W52307   7.491   1.565   8.812 -0.2542  0.2262 -0.1289
21092W        W52308  15.137   3.829   0.748 -0.0278  0.2795 -0.0099
21093W        W52309   2.517  18.867   3.611  0.1500  0.0895  0.0959
21094W        W52310  18.640  13.712   9.664  0.0535  0.0900 -0.1069
21095W        W52311  17.269  27.438   8.444  0.1133 -0.0648  0.2988
21096W        W52312   4.072   1.984   9.826  0.0786 -0.1509  0.4869
21097W        W52313   8.543  10.486   1.264 -0.0557  0.0097 -0.1763
21098W        W52314   0.788  25.703   7.740  0.2211 -0.1509  0.4926
21099W        W52315   8.034  22.013   3.323 -0.1903  0.0274 -0.1864
21100W        W52316  11.281   1.456  10.388 -0.0369  0.1635  0.3013
21101W        W52317  15.730   1.330   8.703 -0.1513  0.0515 -0.0488
21102W        W52318  15.374  26.169   2.140 -0.1388  0.0373  0.2495
21103W        W52319   8.905  24.761   9.835  0.1402  0.1808  0.0660
21104W        W52320  19.072   7.067   7.363  0.1196 -0.1611 -0.2952
21105W        W52321   2.273  10.451   7.249 -0.3439  0.0376 -0.1007
21106W        W52322  10.087   6.102   0.727 -0.0306 -0.2144 -0.0353
21107W        W52323  23.767  13.596   9.531  0.0499 -0.0512  0.0553
21108W        W52324  24.734  23.088   7.713 -0.1031 -0.0833 -0.1937
21109W        W52325   6.996  26.270   7.546  0.3139 -0.0284  0.0256
21110W        W52326  21.429   1.320   9.091 -0.0484  0.2898  0.0659
21111W        W52327   6.855  16.886   1.427  0.2303 -0.0221  0.2983
21112W        W52328  20.038  25.616   0.617 -0.1591 -0.0311  0.0288
21113W        W52329   2.630  20.613   9.645  0.0370  0.0206  0.1747
21114W        W52330  23.439  20.659   0.612 -0.1142 -0.2804 -0.2294
21115W        W52331  14.286  10.500   8.701  0.2439 -0.4168  0.0933
21116W        W52332  23.608  21.028   1.934  0.1079 -0.0099 -0.2822
21117W        W52333   5.786   8.675   1.500  0.2882  0.2596  0.0052
21118W        W52334   4.029  23.061   3.521 -0.0693 -0.1118 -0.1034
21119W        W52335   5.370  13.602   8.195 -0.1237  0.2496 -0.0961
21120W        W52336   2.652   1.659   0.985 -0.3193  0.2089  0.0712
21121W        W52337  15.743  17.954   8.909  0.2666  0.0218 -0.1225
21122W        W52338  22.229  11.900   9.528  0.1968 -0.1424  0.3175
21123W        W52339   9.512  22.002   8.916  0.1670  0.2640 -0.1527
21124W        W52340  21.364  20.256  10.371  0.0562 -0.1652  0.2472
21125W        W52341  11.242   3.283   1.409 -0.0077 -0.1092 -0.3142
21126W        W52342  13.907   4.264   1.402 -0.4938 -0.0441  0.2592
21127W        W52343   9.323   4.028   1.242 -0.0358  0.0405  0.1083
21128W        W52344   1.461  16.780  10.290 -0.0002  0.1151 -0.1109
21129W        W52345  25.008  12.497   3.108  0.0396 -0.1006 -0.0316
21130W        W52346  11.241   1.290   0.337 -0.2088 -0.0635 -0.3036
21131W        W52347   0.349  21.808   9.900 -0.1006  0.2377 -0.1353
21132W        W52348   9.295  25.328   8.154  0.2869  0.0024 -0.0192
21133W        W52349  12.403  22.997   9.229 -0.2301  0.3869 -0.0283
21134W        W52350  25.783  15.971   8.806 -0.0381 -0.1689 -0.0405
21135W        W52351  18.525  14.454   9.513 -0.0606  0.4752 -0.0973
21136W        W52352  25.312   9.132   1.798  0.2516  0.0074  0.0161
21137W        W52353   4.128   7.566  10.387 -0.2788  0.0357  0.0594
21138W        W52354   0.373   3.471   0.397  0.4997  0.1376  0.2456
21139W        W52355  14.719  24.302   1.921 -0.0566  0.1863  0.0941
21140W        W52356   4.379   9.560   7.130 -0.2603  0.4126 -0.1871
21141W        W52357  23.951   0.988   2.421  0.0507  0.1129 -0.1224
21142W        W52358   0.906   5.705   8.459 -0.1350 -0.2415  0.2724
21143W        W52359   1.447  22.857   2.403 -0.0278  0.2915  0.1758
21144W        W52360   0.462   6.844   1.069 -0.2877 -0.1082  0.1020
21145W        W52361   5.117  27.072   1.780 -0.1138 -0.1164 -0.0313
21146W        W52362   8.168   4.739  10.293 -0.0065 -0.1617 -0.0913
21147W        W52363  10.586  16.031   1.447  0.2035 -0.1600 -0.1122
21148W        W52364  14.670  17.702   2.525  0.1477 -0.2820  0.2059
21149W        W52365   8.105  15.391   8.760 -0.0126  0.1403  0.0643
21150W        W52366   2.857  16.649   8.021 -0.0308  0.2241 -0.1972
21151W        W52367  23.925  21.749   9.893 -0.2882  0.0242  0.0807
21152W        W52368   9.738   0.176  10.140 -0.0295 -0.1081  0.2825
21153W        W52369  22.045  12.294   8.730  0.0166 -0.0145 -0.0501
21154W        W52370  20.559  13.647   2.129 -0.2230 -0.0543  0.1265
21155W        W52371   2.465   3.917   2.630 -0.0045 -0.1216  0.2370
21156W        W52372  19.462  25.351   1.714  0.3318  0.3792 -0.2092
21157W        W52373   5.779  15.375   7.914 -0.1848  0.1266 -0.4491
21158W        W52374  23.280  27.124   0.589 -0.1173 -0.0184  0.1655
21159W        W52375  22.882   6.076   0.746  0.0372 -0.0521  0.3057
21160W        W52376  24.780   4.558   0.336  0.1502  0.0676  0.2227
21161W        W52377   6.142   8.164   2.205 -0.2298 -0.0993  0.0535
21162W        W52378  26.382   2.275   1.717 -0.1591 -0.0185 -0.1205
21163W        W52379  18.274  25.424   8.456  0.0283  0.0211  0.0425
21164W        W52380   1.348  25.261   1.386  0.1054  0.0101  0.1673
21165W        W52381  13.873  11.645   0.537  0.1160  0.5469  0.0928
21166W        W52382  13.342   6.640   7.853 -0.0820 -0.1649 -0.1925
21167W        W52383  20.365   8.599   8.648  0.1825 -0.2019 -0.1448
21168W        W52384   0.296   2.516   1.539 -0.1414  0.1119  0.0259
21169W        W52385   1.075  22.842   8.882  0.1838  0.0791 -0.2234
21170W        W52386  13.137   8.814   3.000  0.2253 -0.5302  0.0869
21171W        W52387  18.798  26.771   8.373  0.0418  0.3527  0.0510
21172W        W52388  15.582  25.147   2.809 -0.1805 -0.1208  0.0217
21173W        W52389   8.271   4.187   6.813 -0.5850 -0.1040  0.0961
21174W        W52390   3.214  26.876   1.363  0.0578  0.2422 -0.0626
21175W        W52391  27.212   1.178   1.129 -0.1469 -0.0464  0.0743
21176W        W52392  24.915   5.789  10.164  0.2097  0.0489 -0.0402
21177W        W52393  11.898   8.301   1.164 -0.1992  0.1789 -0.0190
21178W        W52394  10.675  26.455   0.662 -0.0529  0.2668 -0.1649
21179W        W52395  23.787   2.211   1.081 -0.1991 -0.0382  0.0242
21180W        W52396  25.782   6.910   9.353 -0.0455 -0.0098  0.1025
21181W        W52397   8.093   6.411   3.452 -0.1859 -0.3069  0.2751
21182W        W52398  11.610   1.782   8.087  0.2780 -0.2691 -0.0810
21183W        W52399  20.364   0.812   2.892  0.1428 -0.0613  0.0982
21184W        W52400  22.784   8.876   0.166 -0.2026  0.0124  0.0041
21185W        W52401   8.901  22.147   9.444 -0.0142  0.0920  0.0905
21186W        W52402  19.882  25.237   8.266 -0.4071  0.0650  0.5554
21187W        W52403  21.521   3.634   3.332 -0.1736  0.0851 -0.1967
21188W        W52404   2.376   0.749   9.531 -0.2016  0.1050 -0.0076
21189W        W52405  20.374  27.440   0.413 -0.1205 -0.3281 -0.0814
21190W        W52406  25.240  22.328   0.134  0.0636  0.0908 -0.0024
21191W        W52407  26.625  13.587  10.086 -0.2594  0.1788  0.1293
21192W        W52408  19.165   9.725   7.963 -0.2918 -0.0620  0.0238
21193W        W52409   4.403  26.550   1.981  0.0559  0.2332 -0.1344
21194W        W52410  22.983  12.922   8.483  0.0228  0.2105  0.0324
21195W        W52411  10.845   8.949   3.088 -0.0342 -0.0481 -0.4626
21196W        W52412  15.984   5.544   7.229 -0.0926 -0.0965  0.1789
21197W        W52413  17.853  26.461   1.398  0.0375 -0.1203  0.1790
21198W        W52414  21.583   4.601   1.921  0.0490  0.0715  0.0674
21199W        W52415  24.498  23.349   8.565 -0.2380  0.1627 -0.0316
21200W        W52416  20.695   6.003   0.734 -0.0979 -0.1971 -0.1489
21201W        W52417  10.786  23.981   0.651  0.0285 -0.3766  0.2621
21202W        W52418  19.066  18.270  10.440 -0.1468  0.1483  0.1896
21203W        W52419  20.157   0.124   2.368  0.2207  0.0566 -0.1135
21204W        W52420  14.471   9.926   7.931 -0.3190  0.1697  0.0604
21205W        W52421   2.752   5.766   3.380  0.0608  0.0976  0.3920
21206W        W52422  27.124  17.522   2.385 -0.1567  0.2296  0.1229
21207W        W52423  18.711  25.989  10.338 -0.1445 -0.1765 -0.2153
21208W        W52424  20.165  26.569   9.465  0.2902 -0.1384  0.0353
21209W        W52425  19.121   2.202   9.783  0.0225  0.0018  0.0024
21210W        W52426   0.352  15.010   8.077 -0.1168  0.2011 -0.2655
21211W        W52427   1.722  22.673   2.735  0.3728  0.0210 -0.0618
21212W        W52428  20.478  10.669   9.442 -0.0297  0.0966  0.1012
21213W        W52429   9.754  27.618   0.068  0.4950 -0.2475 -0.2751
21214W        W52430  25.511   6.007   2.573  0.1356  0.0838 -0.0239
21215W        W52431   8.528  14.209   2.417 -0.0338  0.1770  0.0364
21216W        W52432   5.176  13.950   0.382 -0.0721 -0.1932  0.0666
21217W        W52433   9.087  23.338   9.006 -0.0464  0.1440  0.1578
21218W        W52434  24.275   2.990   3.771  0.0547 -0.3385  0.0442
21219W        W52435   5.922  14.411   0.323 -0.3139  0.0224  0.0673
21220W        W52436  24.467   2.283   0.364 -0.0840  0.0563  0.3362
21221W        W52437   6.449  13.837   1.416  0.3027  0.1356 -0.1491
21222W        W52438  16.340   4.102   3.324  0.5919 -0.5062  0.0054
21223W        W52439  20.547   4.646   3.510  0.0655 -0.1198 -0.0910
21224W        W52440  10.102  22.643   9.339 -0.2100 -0.0550  0.3062
21225W        W52441  10.030  21.494  10.443 -0.0124 -0.0147 -0.0665
21226W        W52442   0.877  19.733   2.607  0.1540 -0.0620  0.0886
21227W        W52443  25.737  18.996   3.479 -0.0884 -0.1181  0.0088
21228W        W52444  10.684  17.384   0.305 -0.3949  0.1521 -0.0696
21229W        W52445   7.861   7.141   7.877  0.2533 -0.1367  0.1450
21230W        W52446   3.077  23.793   1.161  0.0941 -0.1582  0.0765
21231W        W52447  27.173  22.510   2.676 -0.2755 -0.3798  0.0899
21232W        W52448  19.285   5.412  10.315  0.0241  0.1424  0.4183
21233W        W52449  16.929   7.818  10.472 -0.0551 -0.1164 -0.0372
21234W        W52450  19.023   8.886   0.971 -0.3498 -0.0846 -0.1653
21235W        W52451   3.303  26.479   0.457  0.1750 -0.0108  0.0705
21236W        W52452   3.191  27.494   2.598  0.2781 -0.1761  0.4249
21237W        W52453  27.235  24.375   1.538  0.1762 -0.1912  0.0460
21238W        W52454  25.691   1.281   0.178 -0.2762  0.0392  0.0028
21239W        W52455   6.445  18.306   0.011  0.1387  0.1896  0.0710
21240W        W52456  25.265   5.235   1.471  0.3010 -0.2786 -0.3321
21241W        W52457   9.950  22.568   3.031 -0.0227  0.0852  0.1198
21242W        W52458   6.790  10.980   0.226  0.1402  0.2880  0.2753
21243W        W52459  22.094  15.866  10.517  0.0928  0.2162  0.2202
21244W        W52460   5.304  27.581   9.255 -0.3436 -0.1343 -0.2980
21245W        W52461  20.435  22.445   1.679 -0.3024  0.2336 -0.1116
21246W        W52462  25.321   3.944  10.332  0.1375  0.0811  0.0536
21247W        W52463   8.471  24.337   2.007 -0.0365 -0.1039 -0.0250
21248W        W52464   3.526  22.218   9.818 -0.2180  0.0578  0.0533
21249W        W52465  27.615  22.958   9.169  0.0989  0.2619 -0.1098
21250W        W52466  15.696  24.434   0.628 -0.0462  0.2406  0.3988
21251W        W52467   1.112   6.233   3.523  0.2495  0.2743 -0.3506
21252W        W52468  13.226  13.918   1.944 -0.0138  0.2289  0.0181
21253W        W52469  11.853   7.489  10.408  0.3486  0.1781 -0.2237
21254W        W52470   4.979   0.648  10.216 -0.0084  0.0548  0.2422
21255W        W52471  24.629  12.275   2.757  0.0098 -0.1381 -0.2136
21256W        W52472  15.422   9.864   7.741  0.1212 -0.1353  0.2153
21257W        W52473  17.276   1.419   9.928  0.2915  0.2600  0.2553
21258W        W52474   8.930  22.626   9.627  0.0855 -0.0287  0.3100
21259W        W52475  26.064   0.899   3.152 -0.3159 -0.1309 -0.1189
21260W        W52476  10.438   5.369   8.959  0.0342  0.0979  0.3477
21261W        W52477  16.106  25.198   3.369 -0.1519 -0.0505  0.1298
21262W        W52478  24.596  27.284   0.131 -0.1137  0.1032 -0.1519
21263W        W52479   3.102  26.374   9.591 -0.2023 -0.1382  0.1638
21264W        W52480   4.017   2.801   1.900  0.1736 -0.2333  0.1019
21265W        W52481   7.291  16.690   1.474 -0.1253  0.0030 -0.0971
21266W        W52482  13.804   2.665   2.146 -0.0576 -0.0893  0.0212
21267W        W52483   8.291   5.722   7.862  0.0256 -0.0420 -0.1152
21268W        W52484  21.838   5.843   2.662  0.2344  0.1038  0.0807
21269W        W52485  23.923  21.511   0.896  0.2200  0.1308  0.1031
21270W        W52486   7.658  13.009   2.083 -0.1303  0.0747  0.1787
21271W        W52487  16.496  15.215   1.569  0.1949 -0.0552  0.3313
21272W        W52488   0.613   3.662  10.205 -0.3422  0.3380  0.0645
21273W        W52489   4.587  12.333   1.934 -0.1931 -0.1765 -0.0264
21274W        W52490   6.239  18.526   1.704  0.3191 -0.1311 -0.1370
21275W        W52491  10.022   3.507   9.043 -0.0620 -0.1524  0.0779
21276W        W52492  14.562  15.556   2.908 -0.3667  0.0194 -0.3803
21277W        W52493   7.156  25.345   1.185 -0.1185 -0.2110 -0.0604
21278W        W52494  27.120   2.040   0.723 -0.4155 -0.0439 -0.0474
21279W        W52495  26.970  14.557   0.695  0.1596  0.1911 -0.1001
21280W        W52496   0.308  23.067   0.677  0.4274  0.0139  0.0874
21281W        W52497   7.365   2.780  10.058 -0.0530 -0.0451 -0.3255
21282W        W52498   8.558   8.740   7.644 -0.1450  0.1392  0.2822
21283W        W52499   3.715  12.485   2.028  0.1938  0.0011  0.3289
21284W        W52500  20.409  18.422   9.020 -0.0833 -0.0250 -0.1557
21285W        W52501   1.537  20.964   1.102 -0.0726  0.1373  0.1214
21286W        W52502  17.251   8.822   1.480  0.0529  0.0488 -0.4934
21287W        W52503  13.465  20.676   1.926  0.1169  0.1986 -0.0625
21288W        W52504  24.058  20.030   7.992  0.1164  0.2054  0.1887
21289W        W52505  16.103  17.866   1.754  0.0909  0.1160  0.1811
21290W        W52506  18.235   9.014  10.428  0.4150  0.1650  0.0675
21291W        W52507  21.262  11.758   1.710  0.0019  0.2627  0.1885
21292W        W52508   3.272   2.683   2.945  0.1133 -0.0841 -0.1578
21293W        W52509   1.725  26.964   0.069  0.0148  0.2709  0.2081
21294W        W52510   9.267  20.924   9.592  0.0301  0.0806 -0.0863
21295W        W52511  16.475  17.372   2.535  0.2316 -0.1794  0.1331
21296W        W52512   0.193  26.730   2.721  0.0292 -0.2987  0.1714
21297W        W52513   4.238   8.784   2.825  0.1072  0.1883 -0.3242
21298W        W52514  16.534  22.978   2.642  0.1049  0.0645 -0.0542
21299W        W52515  20.779   5.229   9.105 -0.1491  0.2587 -0.1261
21300W        W52516  23.274   8.951   0.245  0.0374  0.1942  0.0948
21301W        W52517  10.345   6.291   2.074  0.2359  0.1893 -0.2600
21302W        W52518  13.855  10.231   3.766  0.0914  0.0278  0.0218
21303W        W52519  22.675  25.566   2.515 -0.2403 -0.0842 -0.0913
21304W        W52520   9.306   4.784   2.721  0.0990  0.1293  0.0585
21305W        W52521  14.017   4.699   2.972  0.0487 -0.0545  0.2874
21306W        W52522   2.774  11.357   9.406 -0.0523 -0.3655 -0.0094
21307W        W52523   3.249  23.411   9.062  0.1389  0.0056 -0.2033
21308W        W52524   2.157  25.509   1.966 -0.1918  0.3414  0.0582
21309W        W52525  12.098  17.527   9.134  0.0599  0.2048 -0.2135
21310W        W52526   7.186  10.823   8.942 -0.1215  0.1623 -0.1770
21311W        W52527   9.454  11.724   8.064  0.0778  0.0575  0.0946
21312W        W52528  14.507   1.321   0.896 -0.2570 -0.0635  0.0653
21313W        W52529  24.299  14.806   9.061  0.2253  0.2149  0.0971
21314W        W52530   7.137   6.606   0.345 -0.3589 -0.2219  0.1262
21315W        W52531  20.428   5.401   7.911  0.1623  0.4060 -0.0886
21316W        W52532  25.609  18.265   1.079  0.1686 -0.0778  0.0217
21317W        W52533  14.118  17.891   1.778  0.1358  0.0938  0.2786
21318W        W52534  11.037  14.769   1.270  0.0673  0.0006 -0.1276
21319W        W52535  25.389   7.460   3.169  0.2479  0.1181 -0.3354
21320W        W52536   3.451   4.336   2.213 -0.1404 -0.0438  0.3237
21321W        W52537   2.361  10.189   2.614  0.0009  0.0818 -0.0017
21322W        W52538  19.406  25.992   8.113 -0.1521  0.0274 -0.0465
21323W        W52539   7.933  25.397   3.302 -0.2148  0.3018  0.0428
21324W        W52540  24.825  19.052   9.679 -0.2342 -0.0607 -0.2176
21325W        W52541  16.597   3.740   0.439 -0.1568 -0.1318 -0.1502
21326W        W52542  17.424  14.561   0.156  0.1906  0.0918 -0.0425
21327W        W52543   0.382  10.854   3.665  0.0896 -0.0159  0.3163
21328W        W52544  16.633   0.096  10.159  0.0414 -0.2276 -0.0429
21329W        W52545   9.854   6.072   2.051  0.1117 -0.1957 -0.0301
21330W        W52546  27.395  19.938   9.570  0.0315  0.0662  0.0807
21331W        W52547  15.722  23.390   0.295  0.0074 -0.2655 -0.1487
21332W        W52548  22.319   5.222   4.152 -0.0448  0.1879 -0.1707
21333W        W52549   8.259  14.555   3.178 -0.0421  0.0443  0.1991
21334W        W52550  19.743  21.017  10.376 -0.0483  0.3969 -0.1122
21335W        W52551   5.433   7.653   1.570  0.0550 -0.0284 -0.2261
21336W        W52552  18.190  17.187   8.999 -0.1572  0.1059 -0.1234
21337W        W52553   8.815  15.585   0.793  0.0353 -0.3804 -0.0811
21338W        W52554   6.774  18.969   2.147 -0.0741  0.0226  0.0944
21339W        W52555   9.825   4.723   0.098  0.0663  0.0638 -0.0500
21340W        W52556  10.338  17.427   3.104  0.2706  0.2162  0.1712
21341W        W52557   1.886   9.955   7.354 -0.0895 -0.1509  0.1900
21342W        W52558   4.678  23.451   9.116 -0.5432 -0.1260  0.0464
21343W        W52559  20.493  17.022   1.695 -0.3348 -0.1041 -0.2874
21344W        W52560  13.743   8.706   3.822  0.0873 -0.0751  0.0795
21345W        W52561   7.201  14.940   2.009 -0.0975 -0.0875  0.1301
21346W        W52562  22.274   8.348   8.235 -0.1030  0.0388  0.4235
21347W        W52563  15.224   4.770   2.531 -0.2015  0.1645 -0.2594
21348W        W52564  17.098   0.293   8.477  0.1344 -0.1638 -0.0135
21349W        W52565   5.404   5.208   2.966  0.0770  0.0369 -0.0568
21350W        W52566  20.760  15.099   0.265 -0.1629  0.1361  0.2457
21351W        W52567   8.140   0.143   9.654  0.3857  0.0871  0.0107
21352W        W52568   1.833   0.478   1.980  0.1849 -0.2010 -0.1019
21353W        W52569  20.418   4.491  10.424  0.0162 -0.1251  0.1210
21354W        W52570   2.516  13.650   7.144 -0.1441  0.0202  0.2066
21355W        W52571   5.464  13.207   0.979  0.0444  0.3519  0.3933
21356W        W52572  23.925   8.547   7.985 -0.3829  0.0831  0.3051
21357W        W52573  25.480   7.338   7.507 -0.0890 -0.0292  0.2025
21358W        W52574   5.351  17.354   7.773 -0.0401 -0.1365 -0.0815
21359W        W52575  18.630   4.133   2.081 -0.0792  0.2247  0.1125
21360W        W52576   6.198  22.811   9.918  0.1484  0.0299  0.1653
21361W        W52577  18.215   2.122   0.587 -0.0168 -0.1334  0.0734
21362W        W52578  20.898   8.491   9.210 -0.0483 -0.0400 -0.0305
21363W        W52579   0.941  24.307  10.331  0.3479 -0.1926  0.0918
21364W        W52580  19.991  10.934   2.097  0.1760 -0.2337 -0.1516
21365W        W52581   7.560  16.853   0.969  0.0925 -0.0925  0.1239
21366W        W52582   7.735   5.847   8.791  0.0912  0.1061 -0.1448
21367W        W52583   6.149  17.124   8.832  0.0173  0.3238  0.0659
21368W        W52584  22.691  17.219   1.360 -0.1352 -0.1097  0.0182
21369W        W52585  24.002   7.797   1.968  0.1214  0.2069  0.0444
21370W        W52586   7.643   8.120   9.866  0.0541  0.2371  0.2486
21371W        W52587   3.105   7.779   9.565  0.0455  0.1102  0.2742
21372W        W52588   1.852   0.877   2.401 -0.3014  0.2281  0.1712
21373W        W52589  15.575  16.395   0.190 -0.0068  0.2313  0.0441
21374W        W52590  13.934   9.335   0.388  0.1654 -0.1485  0.0883
21375W        W52591  10.384   1.489   2.613 -0.0470 -0.0362  0.2981
21376W        W52592  19.779  24.822   2.495  0.4358 -0.3677 -0.2840
21377W        W52593  14.967   4.262   8.594 -0.0355  0.0513 -0.0752
21378W        W52594  26.987  16.691   8.497 -0.2557  0.1410 -0.0012
21379W        W52595   5.489  14.227   9.975  0.2260 -0.0681  0.1722
21380W        W52596  22.117  20.754   0.972 -0.3984  0.0273  0.1416
21381W        W52597  13.133  22.015   2.832  0.0442  0.0577 -0.1795
21382W        W52598   3.708  15.719   2.020  0.2210  0.0763  0.1847
21383W        W52599   4.521  18.922   2.264 -0.2338 -0.0443 -0.2347
21384W        W52600  12.280  24.684   1.108  0.0342  0.0634 -0.0346
21385W        W52601  21.859   7.045   1.357 -0.2351  0.0491 -0.0558
21386W        W52602  26.480  19.756   1.340  0.0519 -0.0759  0.2376
21387W        W52603   7.084   4.353   3.040 -0.0954  0.1200 -0.1016
21388W        W52604  17.403   7.234   7.693  0.2459  0.0636  0.0246
21389W        W52605   6.861  15.302   9.233  0.0224  0.0303 -0.1267
21390W        W52606  21.316  16.933   8.176  0.3350 -0.1730  0.2253
21391W        W52607  13.660  18.099   2.749 -0.1624 -0.1446  0.0098
21392W        W52608  24.899  23.262   2.639  0.3588  0.1194  0.0927
21393W        W52609  27.160  11.973   9.797  0.2924 -0.1340 -0.0843
21394W        W52610  20.626  17.417   8.917  0.1643  0.2587 -0.3372
21395W        W52611  12.958   8.236   1.134 -0.1467 -0.1663 -0.0609
21396W        W52612   7.980   2.084   0.895 -0.3305 -0.0756  0.1204
21397W        W52613  15.504  15.248   9.618  0.2300  0.2638 -0.0545
21398W        W52614  10.014  24.754   4.206 -0.3773 -0.1474 -0.0499
21399W        W52615   4.494   9.983   9.107  0.2081  0.1048 -0.0075
21400W        W52616   9.683  13.493   2.555 -0.1614  0.1801  0.0894
21401W        W52617   4.584   1.689   1.245  0.1437 -0.0343  0.0700
21402W        W52618  25.576   9.441   1.551 -0.2395 -0.0948  0.0583
21403W        W52619  15.582   2.707   1.963 -0.3203  0.0719 -0.0799
21404W        W52620  14.869  19.796   3.343 -0.1973  0.1685 -0.2391
21405W        W52621   9.331   3.256   2.698  0.0048 -0.5597  0.0985
21406W        W52622  26.043  23.501   0.412 -0.1196 -0.0309 -0.0056
21407W        W52623   3.432  22.419   4.092  0.0431  0.2192  0.1313
21408W        W52624  20.001   6.448   1.300 -0.1043 -0.0738  0.5458
21409W        W52625   4.117  14.843   7.593 -0.0015 -0.1849 -0.1371
21410W        W52626  21.102  19.812   1.422 -0.1048  0.2219 -0.1045
21411W        W52627  20.624  10.666   8.544  0.2233 -0.1951  0.0395
21412W        W52628  15.663  20.410   2.177  0.1014 -0.2227 -0.0865
21413W        W52629  12.931   5.290   9.296  0.0936  0.2771 -0.2179
21414W        W52630  17.121  10.976   0.808 -0.0272 -0.0102 -0.1960
21415W        W52631  18.447   7.655   0.207  0.3767  0.0661  0.3715
21416W        W52632  24.860  24.859   7.798  0.0046 -0.1087 -0.2219
21417W        W52633   9.485  27.270   1.628 -0.0084  0.0723 -0.1078
21418W        W52634  24.868  18.224   1.813 -0.2263 -0.1693 -0.0485
21419W        W52635  14.666  26.559   3.280  0.1970  0.0124  0.4074
21420W        W52636   2.572   8.679   9.765  0.1850  0.0363 -0.0207
21421W        W52637  14.277  22.566   3.428 -0.0357 -0.4319 -0.0598
21422W        W52638  25.875  13.325   0.766  0.0947 -0.0908  0.0143
21423W        W52639  20.320   6.053   0.376  0.0022  0.1583  0.1525
21424W        W52640  21.012  24.402   0.645  0.0438 -0.2068  0.0709
21425W        W52641  15.448  15.702  10.068  0.0561  0.4591 -0.1079
21426W        W52642  13.990  25.829   3.372  0.3019 -0.1457  0.2030
21427W        W52643   9.665   7.715   7.457  0.0389  0.3501 -0.0347
21428W        W52644  20.060  23.572   7.901  0.0960  0.4285  0.2982
21429W        W52645   6.905  26.408   3.802  0.0456  0.1249 -0.0029
21430W        W52646  12.598  14.270   2.477  0.3531 -0.0300  0.2874
21431W        W52647  22.507  19.095   2.087  0.0526  0.0117 -0.3827
21432W        W52648   9.221  12.974   8.409 -0.0482  0.0726  0.2237
21433W        W52649  26.534  13.322   2.871 -0.0204  0.2516  0.3854
21434W        W52650  24.096  11.232   0.567  0.0185 -0.0944  0.1215
21435W        W52651   9.625  10.280   8.064  0.0213  0.4612  0.0413
21436W        W52652  17.131   3.224   8.855  0.1575 -0.3311  0.1229
21437W        W52653   5.734  24.670   8.952 -0.0838  0.0113  0.0773
21438W        W52654   1.865  11.376   2.340 -0.1305 -0.2806 -0.2728
21439W        W52655   0.392  19.222   8.404 -0.0540  0.1177  0.2064
21440W        W52656   9.987  21.265   2.570 -0.0473  0.0897  0.1155
21441W        W52657  23.741  21.795   1.422  0.0806 -0.0250 -0.0240
21442W        W52658   8.032   8.278   8.836 -0.0352  0.2384 -0.0438
21443W        W52659  22.911  21.155   0.254 -0.4813 -0.0713 -0.2246
21444W        W52660  16.136   4.715   7.912  0.0693  0.0352  0.0745
21445W        W52661  13.280  16.018   2.550  0.2505  0.0657  0.0352
21446W        W52662  23.326  26.218   7.801  0.0546 -0.2457  0.2395
21447W        W52663   8.687   3.624   9.487  0.0100 -0.1689 -0.4060
21448W        W52664   4.616  10.325   2.635  0.1827 -0.1219  0.0756
21449W        W52665  15.327   1.661   0.233 -0.1623 -0.4087  0.2364
21450W        W52666   3.959   2.849   9.388  0.1181 -0.0534  0.0758
21451W        W52667  20.696   9.129   7.319 -0.0118 -0.0423 -0.0213
21452W        W52668  15.552   0.293   3.416 -0.2763  0.0228 -0.1340
21453W        W52669  16.106   8.999   2.249  0.3508  0.1372 -0.1907
21454W        W52670   3.906   7.081   2.210  0.2364  0.2024 -0.2861
21455W        W52671   5.313   7.258   1.945 -0.1084  0.0303 -0.2351
21456W        W52672   1.488   2.126   3.704 -0.1827  0.2802 -0.0848
21457W        W52673  24.791  23.899   8.483  0.0408 -0.2758  0.0186
21458W        W52674   8.109  26.452   7.980  0.0313  0.0021 -0.0455
21459W        W52675  14.524  25.341   2.747  0.1086 -0.2619 -0.0250
21460W        W52676   7.588  26.084   9.841  0.1300 -0.0947 -0.1991
21461W        W52677  21.239  27.591   1.622 -0.0232  0.0292  0.1765
21462W        W52678   2.880  10.903   0.202 -0.0926  0.1630  0.0861
21463W        W52679  15.144   0.611   0.835 -0.1891 -0.0139  0.1140
21464W        W52680  22.731   8.359   0.276 -0.1057 -0.0427 -0.3144
21465W        W52681  10.605  11.149   8.069 -0.1691  0.3897  0.1050
21466W        W52682  16.717   6.065   2.577 -0.0490  0.0174  0.0953
21467W        W52683  23.499  19.746   0.891 -0.1934  0.1090 -0.4033
21468W        W52684  14.982   3.045   1.117  0.0802 -0.0388 -0.2499
21469W        W52685  10.128  20.215   3.438  0.1492 -0.1303  0.2378
21470W        W52686  25.276  21.964   0.925 -0.2354 -0.0295 -0.1139
21471W        W52687  22.338   4.917  10.524  0.2614 -0.0137 -0.1884
21472W        W52688  26.987  18.663   1.371 -0.0184 -0.2107  0.3395
21473W        W52689  22.940   3.173   1.760  0.1399 -0.1115 -0.2862
21474W        W52690  27.131  21.619   1.079  0.3144  0.0688  0.0316
21475W        W52691  25.514  21.961   9.433  0.0839  0.1440 -0.0263
21476W        W52692   4.819  19.776   2.867 -0.1371 -0.0440 -0.2956
21477W        W52693  19.054  25.047   1.506  0.3466 -0.0849 -0.3956
21478W        W52694  20.538  12.588   2.707 -0.0697 -0.2259  0.0398
21479W        W52695  13.837   6.486   8.462 -0.1795  0.2751  0.0460
21480W        W52696   9.399   6.147   8.498  0.2442 -0.1362  0.0221
21481W        W52697   4.506  21.579   8.153  0.0389 -0.0552 -0.3830
21482W        W52698   4.379   5.898   2.965  0.1298  0.2061  0.2023
21483W        W52699  16.731   7.384   0.495 -0.0066  0.0098 -0.0134
21484W        W52700  16.458   0.748   8.634  0.0949  0.0998 -0.3039
21485W        W52701   2.630  18.819   0.690  0.3560 -0.0103  0.0457
21486W        W52702  24.782  17.751   9.340  0.4677 -0.0294  0.0606
21487W        W52703  15.240  18.593   9.064 -0.2020  0.1374  0.1384
21488W        W52704  17.490   8.141   8.783  0.0428 -0.1343 -0.0502
21489W        W52705  27.459   2.481   2.453  0.0380 -0.0506 -0.0507
21490W        W52706   5.577  26.548   2.934 -0.1327 -0.1178 -0.1251
21491W        W52707   4.467  21.237   9.011  0.2711  0.2364 -0.1378
21492W        W52708   1.917   1.574   9.154  0.0140  0.0443 -0.1242
21493W        W52709  22.302   4.104   2.950 -0.0047 -0.1280  0.0376
21494W        W52710  14.957  10.649   8.198 -0.2121 -0.0027 -0.1183
21495W        W52711   2.434   8.110   3.220 -0.0927  0.1727  0.1827
21496W        W52712  22.293   1.905   3.292  0.2079  0.1343 -0.2890
21497W        W52713   9.795  24.178   9.484 -0.0996  0.2022  0.2190
21498W        W52714  14.641  16.874   9.438  0.2144  0.3725 -0.0856
21499W        W52715  27.119   4.895   3.916 -0.0428  0.0466  0.0135
21500W        W52716  24.714  13.871   2.927 -0.3092 -0.1676  0.0696
21501W        W52717  11.437   3.585   8.075  0.1193  0.1222  0.0363
21502W        W52718  17.350   7.424   9.898 -0.0452 -0.0237 -0.1093
21503W        W52719   4.289  17.879   3.797  0.1498  0.0374  0.0005
21504W        W52720  14.685  26.892   3.598 -0.1552 -0.0381 -0.0946
21505W        W52721  20.812  19.655   1.073  0.2130  0.3014 -0.0714
21506W        W52722   4.961  18.169   2.073 -0.2497 -0.0795  0.2002
21507W        W52723  27.290  26.257   0.220 -0.1344  0.2600  0.1515
21508W        W52724   6.219  26.460   9.749  0.0875 -0.2844  0.2744
21509W        W52725  10.903  20.359  10.287  0.2069 -0.1564  0.1196
21510W        W52726  24.997   2.446   0.391 -0.0028  0.1161  0.0526
21511W        W52727  22.330  26.079   2.522  0.0997 -0.0519 -0.1689
21512W        W52728   9.108  13.484   2.371 -0.1155  0.1283 -0.1423
21513W        W52729   2.813   5.765   2.874  0.1355 -0.0036 -0.3028
21514W        W52730   5.247  21.204   0.451 -0.1513 -0.0197 -0.1746
21515W        W52731  17.988   9.396  10.234 -0.2812 -0.1756  0.0033
21516W        W52732  23.510  19.046   8.342 -0.0096  0.0776 -0.1384
21517W        W52733   3.899  21.816   8.801  0.0576 -0.0928 -0.4500
21518W        W52734  21.169  23.911   1.442 -0.1801 -0.0524 -0.1264
21519W        W52735  21.323  18.458  10.254 -0.0141 -0.2625  0.2574
21520W        W52736  21.115   9.773   2.994 -0.1476 -0.1086 -0.1668
21521W        W52737  25.184  15.480   0.808  0.0080  0.0976  0.2593
21522W        W52738  15.450   9.270   2.029 -0.1096  0.1542  0.0669
21523W        W52739  11.297  12.853   8.184  0.2198 -0.0691 -0.0207
21524W        W52740  19.608   7.345   8.689 -0.0496  0.0298 -0.1635
21525W        W52741  13.079   3.802   1.910 -0.1708 -0.0191 -0.0394
21526W        W52742  25.328  13.336   2.926 -0.1006  0.2650 -0.2469
21527W        W52743  11.882  15.256   8.191 -0.1266  0.0286 -0.0254
21528W        W52744  20.987   9.180  10.538  0.1080  0.3288 -0.1151
21529W        W52745   0.289  20.336   2.644  0.1602 -0.1784  0.3204
21530W        W52746  24.900  17.652   2.178 -0.0593 -0.0519 -0.1589
21531W        W52747   3.483  20.408   2.258  0.2198 -0.0956  0.1358
21532W        W52748   6.165  23.053   4.224 -0.0665 -0.2270 -0.0687
21533W        W52749  10.861  12.804   9.880  0.1396 -0.3719  0.2506
21534W        W52750  21.543   4.542   2.531  0.3421 -0.1108  0.0978
21535W        W52751  16.699  10.643   8.557  0.0556 -0.1719 -0.1339
21536W        W52752  20.272  19.571   1.882 -0.1322  0.0518  0.0630
21537W        W52753  23.671  11.095   8.998 -0.3415 -0.0487 -0.1132
21538W        W52754  25.402   2.148   1.852  0.0589 -0.1810 -0.2440
21539W        W52755   2.612  14.640   0.683 -0.1209  0.1264 -0.2720
21540W        W52756  14.437   7.768   9.484  0.1024  0.1813  0.1703
21541W        W52757  21.284  12.734   2.305  0.2509 -0.3092  0.0999
21542W        W52758  11.621  26.175   1.491  0.1903 -0.1195  0.2719
21543W        W52759  22.320   3.847  10.359  0.2493 -0.0608 -0.0184
21544W        W52760   5.133   8.457  10.417 -0.4321 -0.2459  0.1556
21545W        W52761   5.457  20.389   8.477  0.0916  0.0970 -0.0248
21546W        W52762  12.693  17.560   1.330  0.0639 -0.1027  0.5322
21547W        W52763   0.056  26.994   0.529 -0.0488 -0.0728  0.0994
21548W        W52764  19.128  14.170  10.207 -0.0276  0.0076 -0.0026
21549W        W52765  23.072  17.339   9.919 -0.4621 -0.3294 -0.2397
21550W        W52766   0.797   9.024   3.253  0.0007 -0.0855 -0.3666
21551W        W52767  12.152  23.972   2.809 -0.0490  0.0678  0.1412
21552W        W52768  20.317  25.431   9.241  0.1481  0.1630 -0.3884
21553W        W52769  15.225  14.299   9.137 -0.1562 -0.2071 -0.3688
21554W        W52770  18.470  18.064   0.859 -0.2078 -0.1033  0.2931
21555W        W52771  13.756  13.285   7.873 -0.1455  0.2708  0.5078
21556W        W52772  12.205  11.141   2.479 -0.2097  0.1871 -0.0553
21557W        W52773  26.895  23.275   1.862 -0.0950  0.0490 -0.1198
21558W        W52774  13.604   7.716  10.093  0.1406 -0.2985 -0.0710
21559W        W52775  12.914  20.961   0.568 -0.1550  0.0596 -0.2560
21560W        W52776   2.329   9.691   8.612 -0.0569  0.0704 -0.5411
21561W        W52777  26.015  24.290   0.570 -0.0509  0.0822 -0.0080
21562W        W52778   9.757  24.107   0.346  0.1012  0.0921  0.4072
21563W        W52779  19.905   4.130   8.835 -0.2875 -0.2366 -0.1710
21564W        W52780  23.416  19.031   9.915  0.2846 -0.0836 -0.0158
21565W        W52781   4.491   5.405   8.105 -0.0478 -0.2822 -0.0448
21566W        W52782   2.081   2.186   1.907  0.3029  0.3914 -0.1301
21567W        W52783  24.378   3.432   3.936 -0.2382 -0.0734 -0.1598
21568W        W52784  16.371  17.557   8.511  0.0120  0.2468 -0.1252
21569W        W52785   6.069   0.753   8.817  0.3285 -0.2537 -0.0999
21570W        W52786   5.688  15.034  10.468 -0.1315 -0.2125 -0.2474
21571W        W52787  26.765  11.000   1.889  0.1864  0.0802 -0.0329
21572W        W52788  20.539   1.279   0.065 -0.2019 -0.0326 -0.0470
21573W        W52789   4.313  20.386   2.107  0.1444  0.0291 -0.0421
21574W        W52790   7.459   9.095   2.665 -0.1677  0.4220  0.0768
21575W        W52791  24.373   3.197   8.526 -0.2553 -0.2651  0.0096
21576W        W52792  24.613  19.470   9.330  0.1778  0.1412  0.4077
21577W        W52793   0.013  19.334   0.423 -0.1726 -0.0467 -0.1587
21578W        W52794  11.267   4.568   0.545  0.0746  0.1725 -0.0699
21579W        W52795   1.929   9.583   7.780 -0.1338 -0.0543 -0.2023
21580W        W52796   2.553   7.641   3.024 -0.0660 -0.1468 -0.0714
21581W        W52797   5.035  20.026   3.453  0.2213  0.1872  0.0970
21582W        W52798  12.953  26.334   2.608 -0.1159 -0.0596 -0.2141
21583W        W52799  24.213  14.359   9.279 -0.1864  0.0112 -0.0571
21584W        W52800  14.438   4.942   2.778 -0.1200 -0.0466  0.1578
21585W        W52801  10.414   7.824   9.661  0.0770 -0.1307 -0.0159
21586W        W52802  19.371  23.416   8.329 -0.0003  0.0839  0.2166
21587W        W52803   6.171   0.379   0.328 -0.1589 -0.3176 -0.0298
21588W        W52804  26.594   6.755   8.685 -0.2391 -0.0403  0.2926
21589W        W52805   3.360   2.347   1.131 -0.0037  0.0396 -0.2328
21590W        W52806  27.536  19.051   1.885  0.0141  0.0880 -0.0463
21591W        W52807   6.872  21.676  10.215 -0.1489  0.0038 -0.0567
21592W        W52808  12.125  15.675   8.533 -0.0565  0.1344  0.1360
21593W        W52809  24.389   3.815   0.727  0.1228 -0.2392 -0.0146
21594W        W52810  20.970  21.154   2.027 -0.1724 -0.1463  0.3221
21595W        W52811   3.718  25.938   7.963  0.2208  0.0714 -0.0210
21596W        W52812   3.251  22.632   1.155  0.0849  0.1252 -0.0940
21597W        W52813  19.540   4.040  10.185  0.2145 -0.0556  0.3223
21598W        W52814  13.886   8.045   3.121 -0.5765 -0.0039  0.1475
21599W        W52815  16.457   7.519   1.522 -0.1574  0.0778 -0.0720
21600W        W52816   4.609  19.237   9.000 -0.2931  0.1182 -0.1130
21601W        W52817   5.631  25.674  10.456  0.0018 -0.3515 -0.0986
21602W        W52818  15.128   5.817   2.893  0.1673 -0.1068  0.0862
21603W        W52819  12.514  13.435   2.762  0.2622  0.1122 -0.1332
21604W        W52820  20.521  19.880   8.599  0.0456  0.1542 -0.1271
21605W        W52821   4.314  22.141   8.626 -0.1665 -0.1400 -0.3961
21606W        W52822   2.596  15.582   1.971 -0.1821 -0.5120  0.1543
21607W        W52823   7.188   0.282   9.478  0.1577  0.2589  0.3420
21608W        W52824  11.834  12.053   1.011 -0.3592  0.0286 -0.2075
21609W        W52825  26.847  24.451   3.266 -0.0227  0.2822  0.1083
21610W        W52826  14.565  12.593   0.207 -0.3077  0.2258 -0.0257
21611W        W52827  16.726  20.359   7.816 -0.1868  0.3158 -0.2621
21612W        W52828   6.223  21.293   0.375  0.5687  0.0695  0.2626
21613W        W52829  10.630   4.301   8.029  0.0062  0.2077 -0.2497
21614W        W52830   2.965   9.444   2.613  0.3511  0.2952 -0.1276
21615W        W52831  27.538   8.457   1.430 -0.1483 -0.0660  0.0068
21616W        W52832  23.604  22.553   7.815 -0.0098 -0.2435 -0.2914
21617W        W52833  16.200  16.185   1.227  0.0501  0.0278  0.1885
21618W        W52834  12.479  10.341   2.127  0.2595  0.0278  0.2417
21619W        W52835   3.692  27.577   8.269 -0.0354 -0.0175  0.2268
21620W        W52836  15.153   9.721   2.100  0.2064 -0.0939  0.0543
21621W        W52837  13.155   9.693   1.013  0.1923 -0.0463 -0.3411
21622W        W52838  10.632  21.403  10.382 -0.3559  0.0977 -0.1842
21623W        W52839  23.849  12.390   2.848 -0.1343  0.0700 -0.1358
21624W        W52840  22.435   5.249   1.050  0.5256 -0.1450 -0.3270
21625W        W52841  18.083  16.898   7.724 -0.0828  0.1324 -0.3171
21626W        W52842   7.726   7.158   7.391  0.0027  0.0820  0.0644
21627W        W52843   9.906   3.980   8.816 -0.1723 -0.2424 -0.4125
21628W        W52844  23.641   4.029   7.307  0.0775 -0.0470  0.2756
21629W        W52845  22.241   0.805   1.732 -0.0247  0.3062  0.2120
21630W        W52846  11.097  14.496  10.340 -0.1111  0.0376  0.3006
21631W        W52847  27.014   3.829   1.328 -0.2270 -0.1128 -0.0961
21632W        W52848  10.962   4.267   0.951  0.4276  0.0018  0.0360
21633W        W52849   6.608   8.027   9.540  0.1572 -0.0645  0.4200
21634W        W52850  25.399  22.584   2.524 -0.0782 -0.3684  0.2443
21635W        W52851  17.330  11.877   7.462  0.3439  0.2430  0.0399
21636W        W52852   0.806  21.972   9.544  0.1697  0.1929 -0.1113
21637W        W52853  27.017  27.154   1.621 -0.3343 -0.0225 -0.1694
21638W        W52854  16.015  15.117   9.554  0.0955 -0.1133 -0.2747
21639W        W52855   1.840   1.135   8.117 -0.0641 -0.0239 -0.0124
21640W        W52856   3.767  23.590   8.730  0.1579 -0.1234  0.1620
21641W        W52857  15.273   6.957   2.049 -0.0627  0.1223 -0.2946
21642W        W52858  17.074  16.664   8.593  0.1279  0.0319 -0.3975
21643W        W52859  26.501  18.267   0.853 -0.3331 -0.0765 -0.2995
21644W        W52860  19.886  13.442   1.755  0.0969 -0.2886 -0.4242
21645W        W52861  13.793  22.717   8.768 -0.1969  0.0218 -0.0610
21646W        W52862  15.751   0.335   1.398 -0.3697  0.0446  0.2129
21647W        W52863  22.213  21.680   0.497  0.0233 -0.0753 -0.1623
21648W        W52864   4.119   9.251  10.388  0.0836 -0.2589  0.1515
21649W        W52865  21.577  20.437   0.330 -0.0806 -0.0552  0.2587
21650W        W52866  18.676  12.192  10.067  0.2998  0.1404  0.1879
21651W        W52867   0.350  26.388   2.281 -0.0286  0.2388  0.0525
21652W        W52868  19.332  20.312   2.018 -0.3384 -0.1324  0.5517
21653W        W52869   9.721   8.635   9.862  0.1956  0.1102 -0.0621
21654W        W52870   6.449   0.962   9.645 -0.2403  0.0039 -0.3709
21655W        W52871   1.176   2.034   8.605 -0.2364  0.2504 -0.2500
21656W        W52872  13.910  10.535   1.963 -0.1841  0.2986 -0.3401
21657W        W52873  12.598   2.564   0.836  0.0983 -0.0539  0.1845
21658W        W52874  17.681  22.850   7.935  0.0105 -0.1293 -0.1267
21659W        W52875  12.660  10.997   2.902 -0.1359  0.0256  0.0185
21660W        W52876  27.118  27.194   3.089  0.0399 -0.0134 -0.0752
21661W        W52877  12.216   2.702  10.030 -0.4120  0.0661  0.1655
21662W        W52878   8.967  12.663   8.896 -0.3209  0.0019 -0.1286
21663W        W52879  17.261  27.438   1.102 -0.3042  0.1422  0.1127
21664W        W52880   8.016   9.885   9.284 -0.1035  0.2151  0.1100
21665W        W52881   5.218  25.713   9.126  0.0702 -0.0800  0.2625
21666W        W52882  17.612  14.504   9.094 -0.2001  0.1267 -0.3113
21667W        W52883  11.609   7.402   2.923 -0.1321 -0.2122  0.3364
21668W        W52884  11.322  15.580   0.364 -0.1280 -0.0940  0.1888
21669W        W52885   8.041   2.824   7.948 -0.1378  0.2568  0.1084
21670W        W52886  12.774   8.734   1.915 -0.2105  0.1157  0.0538
21671W        W52887   2.286   5.645   1.811 -0.2125  0.4223  0.1304
21672W        W52888  20.037  19.016   9.679 -0.0581 -0.0079  0.1058
21673W        W52889   3.078  17.743   2.481  0.1531  0.0737 -0.4207
21674W        W52890  17.118  25.886   8.387 -0.1569 -0.0545  0.0726
21675W        W52891  27.550   5.061   8.254  0.3345  0.0552 -0.0405
21676W        W52892  25.325  20.569   1.177 -0.1616 -0.2202  0.0549
21677W        W52893  13.105  14.866   9.921  0.1665  0.1167 -0.3197
21678W        W52894  17.379  14.683   2.632  0.1107  0.0002 -0.0060
21679W        W52895  13.625  15.180   9.146  0.2641  0.0353 -0.2447
21680W        W52896  17.156   1.932   0.978 -0.0523  0.0825  0.0369
21681W        W52897  26.848  23.763   0.361  0.0456  0.2125  0.1631
21682W        W52898  24.094  12.992  10.532 -0.1512  0.1230  0.1083
21683W        W52899  25.648  18.657   1.486 -0.4249 -0.3233 -0.1974
21684W        W52900   3.239  16.860   9.807 -0.0043 -0.1652 -0.1355
21685W        W52901   1.280  19.970   2.564 -0.3344  0.0821  0.2338
21686W        W52902   2.681  11.067   1.639 -0.0087  0.0201 -0.0206
21687W        W52903  23.862  17.948   8.951 -0.0716  0.0412  0.1521
21688W        W52904  20.843  23.085   8.310 -0.3672 -0.0849  0.2897
21689W        W52905   3.616   4.203   9.014 -0.0352  0.2008  0.0733
21690W        W52906  10.370   8.598   3.041 -0.2569 -0.1436 -0.0312
21691W        W52907  15.401   1.375   1.231 -0.0744  0.1356 -0.1015
21692W        W52908  26.370  18.940   2.288  0.0550 -0.3403 -0.0456
21693W        W52909  18.722  12.483   1.376  0.0464  0.1919  0.0900
21694W        W52910  23.321  19.400   2.518 -0.0225  0.1741 -0.1561
21695W        W52911   7.549   0.803   0.266 -0.2517 -0.1067 -0.2329
21696W        W52912   7.404  18.185   1.115 -0.0506  0.2543  0.3226
21697W        W52913   3.591  20.255   3.828 -0.1847 -0.0891  0.2406
21698W        W52914   5.811  20.350   9.537 -0.2136 -0.1690  0.6654
21699W        W52915   6.933   2.625  10.312 -0.3364 -0.2701  0.1914
21700W        W52916  10.914  14.914   9.744 -0.0311  0.0388 -0.3427
21701W        W52917  24.010  25.759   7.563 -0.1662 -0.1143  0.0532
21702W        W52918   0.539   6.445   0.676  0.1231 -0.0321 -0.0097
21703W        W52919  11.327  13.620   9.476 -0.1226  0.0480  0.4523
21704W        W52920  12.613  23.962   1.158 -0.0869 -0.1647  0.0344
21705W        W52921  14.592   7.957   2.483 -0.3157  0.1664  0.1532
21706W        W52922  24.089   7.973   8.684 -0.2936  0.1610 -0.3423
21707W        W52923  22.575   8.388   2.301  0.3199 -0.2479  0.0409
21708W        W52924  12.924   3.579   2.505 -0.1890  0.0184 -0.0980
21709W        W52925  22.177   6.757   0.093  0.0432  0.1113  0.0661
21710W        W52926  18.666  18.579   1.265  0.1149 -0.0101 -0.1528
21711W        W52927  18.731  20.638   3.312 -0.0593 -0.1797  0.0942
21712W        W52928   4.578   8.068   0.383 -0.1271  0.0260 -0.0404
21713W        W52929  27.086  11.734   2.766  0.1174  0.0673  0.2381
21714W        W52930  15.632  11.741   7.743 -0.0542  0.2293 -0.2274
21715W        W52931  24.964  27.211   0.856 -0.1388  0.1970  0.2224
21716W        W52932  24.332   2.551   2.564 -0.1227  0.2982  0.0855
21717W        W52933  22.397   7.728  10.384  0.2917  0.1272 -0.3937
21718W        W52934  16.296   4.702   3.363  0.3105 -0.0310 -0.0581
21719W        W52935   1.809  19.978   1.377  0.0597 -0.1231  0.3416
21720W        W52936  22.946  10.753   9.652  0.1363 -0.2279 -0.1307
21721W        W52937  22.321  14.111   0.245 -0.1656 -0.0703  0.2262
21722W        W52938   5.467  19.455   0.051 -0.0549 -0.0535  0.1793
21723W        W52939  11.613  19.112   2.566 -0.2147  0.0866  0.1428
21724W        W52940  19.509  26.485  10.038  0.0402 -0.4108 -0.2766
21725W        W52941  23.691  11.276   1.564  0.0879 -0.0489 -0.3833
21726W        W52942  19.727   5.035   1.929 -0.1981 -0.0238 -0.4286
21727W        W52943   4.839   6.338   8.042  0.4023 -0.1811  0.3524
21728W        W52944  21.437   1.568   2.605 -0.0104  0.2642  0.0399
21729W        W52945  19.833   2.857   8.175 -0.4554 -0.0225 -0.1378
21730W        W52946   7.918  25.556   8.635  0.0805  0.0235 -0.0281
21731W        W52947  25.609  12.794   8.988  0.2865 -0.2122  0.0668
21732W        W52948   0.811   6.603   3.514  0.1354 -0.1444 -0.0703
21733W        W52949  19.244  24.637   1.808  0.0449 -0.1189  0.2091
21734W        W52950  23.137  19.286   9.613  0.2053  0.0152  0.1303
21735W        W52951  10.374  19.661   2.685 -0.1667 -0.0348  0.4544
21736W        W52952  15.663   6.241   8.621  0.3871 -0.1938  0.2406
21737W        W52953   5.231  16.218   8.412 -0.0685 -0.0973 -0.1122
21738W        W52954  25.524  10.781   0.416  0.1785  0.1348 -0.1246
21739W        W52955   9.525  21.898   9.816 -0.1939 -0.2644  0.0004
21740W        W52956   5.064  17.344   0.382  0.0920 -0.0092  0.0342
21741W        W52957  12.530   1.776   8.590 -0.0491  0.1295 -0.1715
21742W        W52958  20.185  12.111   2.369  0.0574  0.0774  0.2463
21743W        W52959  26.693  25.237   3.783  0.0124  0.0657 -0.0631
21744W        W52960   0.091   1.497   1.131 -0.0072 -0.0937  0.0602
21745W        W52961  23.803   3.312   0.035 -0.0875 -0.1325 -0.2625
21746W        W52962   2.011   0.446   9.634 -0.0428 -0.0060 -0.0160
21747W        W52963  15.654  16.021   0.527  0.1777  0.3512  0.0420
21748W        W52964  24.853  17.586   1.555 -0.1539 -0.0625 -0.1845
21749W        W52965  14.072  24.626   1.256 -0.1726  0.0448 -0.0773
21750W        W52966   6.356  26.352   3.624 -0.1381 -0.1462  0.0432
21751W        W52967   4.017   8.035   0.216 -0.4913  0.0104  0.0876
21752W        W52968  13.928   3.592   8.838 -0.3523 -0.0762  0.1239
21753W        W52969  19.575   7.608   1.129 -0.2406 -0.4754 -0.0508
21754W        W52970  26.054  16.342   0.380  0.2501  0.0538  0.1174
21755W        W52971   0.905  14.436   9.268 -0.1811 -0.2478 -0.1638
21756W        W52972  26.882  10.220   2.800  0.1023 -0.1095  0.0025
21757W        W52973  27.195  22.309   8.400 -0.0672 -0.1467 -0.1004
21758W        W52974   0.671  16.930   2.118  0.0300  0.2662 -0.0565
21759W        W52975   1.469   9.769   9.457 -0.1519  0.0917  0.1516
21760W        W52976  15.214  24.791   1.440 -0.0023  0.0803  0.1286
21761W        W52977  19.828  21.547   0.571  0.1253 -0.0311 -0.1855
21762W        W52978  24.354   7.590  10.023 -0.2204 -0.3194  0.1123
21763W        W52979  19.142   7.847   0.961 -0.3733 -0.4617 -0.2517
21764W        W52980  27.507   1.221   9.596  0.0554  0.1032  0.0012
21765W        W52981   2.079   7.733   8.157 -0.0850  0.0693 -0.1969
21766W        W52982   4.245  21.401   2.000 -0.0843 -0.2372  0.0705
21767W        W52983  19.879   2.405   9.774  0.2376  0.0272  0.1640
21768W        W52984  23.062  13.062   9.037 -0.2608 -0.0382  0.3132
21769W        W52985  14.333  22.853   2.040  0.1519 -0.0883  0.3008
21770W        W52986   4.799  18.598  10.049  0.0284  0.4443  0.1072
21771W        W52987  20.482  16.977   8.635 -0.0867  0.1916  0.3404
21772W        W52988   6.569  17.664  10.096 -0.2067  0.1098 -0.2330
21773W        W52989  26.884   5.449   0.641  0.1641 -0.1257  0.0001
21774W        W52990  15.178  20.582   8.928 -0.2764 -0.3849 -0.4684
21775W        W52991   8.777  14.098   1.565 -0.0255 -0.0260 -0.3720
21776W        W52992  26.245   5.484   9.471 -0.0804  0.0590  0.1047
21777W        W52993   3.047  13.849   9.405 -0.1620  0.4955 -0.3864
21778W        W52994   6.550  13.160   1.211 -0.0305  0.3606 -0.1831
21779W        W52995  24.537  10.881   7.080  0.3413 -0.1271  0.0244
21780W        W52996  26.410   8.740   8.844 -0.2996  0.0750  0.1435
21781W        W52997  10.290  22.749   9.865 -0.0350  0.1505  0.1427
21782W        W52998  16.441  20.618   1.722  0.0363  0.2589  0.1259
21783W        W52999   9.555   4.819   1.910 -0.1305 -0.2364 -0.0525
21784W        W53000   5.740  25.843   1.760  0.1484 -0.3500 -0.2619
21785W        W53001  16.505   7.792   9.600  0.1661  0.0132 -0.0353
21786W        W53002   0.143   0.985   8.729 -0.0545  0.2623 -0.1861
21787W        W53003  17.976   9.678   8.624 -0.0336 -0.1816 -0.0966
21788W        W53004   4.384   2.487   2.001 -0.2495  0.4611  0.0489
21789W        W53005   5.633  25.816   8.818  0.1243 -0.0189 -0.0061
21790W        W53006  25.191   2.994   8.662  0.4166  0.1104  0.1110
21791W        W53007   5.896  21.326   1.367 -0.0540  0.2223  0.0925
21792W        W53008   8.641  23.719   0.812  0.1524  0.1538  0.0623
21793W        W53009   6.536  21.758   7.407  0.3279  0.3766 -0.0863
21794W        W53010  14.403  16.201   1.149 -0.6490 -0.0690  0.2940
21795W        W53011  14.099  21.586   0.939 -0.1565 -0.3081  0.0967
21796W        W53012  14.445   1.772   9.147  0.1914  0.2114  0.0555
21797W        W53013  14.029  26.148   2.994  0.0686  0.2731  0.1531
21798W        W53014  23.646  26.657   9.642 -0.0899  0.0330  0.0063
21799W        W53015  27.432  11.704   8.886  0.1557  0.0811 -0.0415
21800W        W53016  11.874  22.818  10.244  0.1001 -0.0570  0.0356
21801W        W53017  14.810   4.561   2.680  0.2805  0.0841 -0.1099
21802W        W53018   3.527   0.434   1.158 -0.1350 -0.2420 -0.1175
21803W        W53019   6.545  26.087  10.491  0.1531  0.0593  0.3832
21804W        W53020  25.314  15.714   7.272  0.1442  0.0334  0.2838
21805W        W53021  22.469  21.318   0.184  0.0145  0.0620  0.2338
21806W        W53022  22.102  24.575   2.698 -0.1946  0.0089  0.4126
21807W        W53023   6.085  11.739   3.435 -0.2992  0.4449  0.2054
21808W        W53024   3.906   9.494   3.107  0.1429 -0.0198  0.1516
21809W        W53025   6.951   9.964   2.805 -0.2189  0.1334  0.1474
21810W        W53026  23.582  13.157   7.495  0.2175 -0.2167 -0.3581
21811W        W53027  22.229  18.885   3.010 -0.0816  0.0845  0.3194
21812W        W53028  11.415  11.796   8.105 -0.0216 -0.1160 -0.1604
21813W        W53029  15.073   5.805   1.657 -0.1456 -0.0214  0.2474
21814W        W53030  11.488  26.623   0.650  0.0502 -0.0256  0.0226
21815W        W53031  26.829   7.166   9.792  0.1014 -0.4377 -0.1974
21816W        W53032   7.411  23.909   4.094 -0.1627  0.2640  0.1182
21817W        W53033  15.789  23.061   2.793  0.0330 -0.0177  0.2973
21818W        W53034   1.467   8.663  10.530  0.1407 -0.1736 -0.2695
21819W        W53035  25.936  16.142  10.104  0.2682  0.0755  0.0095
21820W        W53036  10.015  12.897   8.659  0.1987 -0.2386 -0.0082
21821W        W53037   9.364  25.477   2.371  0.1231  0.2456  0.3642
21822W        W53038  26.485  25.994   8.668 -0.0549  0.0585  0.1403
21823W        W53039   6.677  19.341   9.227 -0.3260 -0.0865 -0.0010
21824W        W53040   8.803   2.478   9.493 -0.2233  0.1480 -0.2539
21825W        W53041  11.493  23.091   3.680 -0.1629 -0.3399 -0.2465
21826W        W53042  18.499  21.910   9.570 -0.0385  0.0888 -0.0291
21827W        W53043  10.059  23.751   0.544  0.0432  0.1106  0.1934
21828W        W53044   3.844   6.997   9.755 -0.0859  0.1830 -0.1425
21829W        W53045  18.270  24.954   9.144  0.1752  0.0366 -0.0284
21830W        W53046  20.863  17.193   9.974 -0.0783  0.1052 -0.1613
21831W        W53047   0.109  17.558  10.395  0.0854  0.0890 -0.0064
21832W        W53048   1.932   2.646   3.497  0.2254 -0.3036 -0.2417
21833W        W53049  24.103  23.498   1.309 -0.0356 -0.0249  0.0315
21834W        W53050   5.909  13.977   9.911 -0.1025 -0.3528  0.3728
21835W        W53051  19.249   6.687   0.167  0.0451  0.0690 -0.2264
21836W        W53052   6.740   7.630   1.059  0.1904 -0.0657 -0.1454
21837W        W53053  19.676  23.107   1.849 -0.0818 -0.1008  0.0039
21838W        W53054  14.377  17.817   2.156 -0.0548 -0.0578 -0.1193
21839W        W53055   7.327   8.544  10.136 -0.7119 -0.0857  0.1321
21840W        W53056  10.704   0.431   2.093  0.1047 -0.0030  0.2230
21841W        W53057  13.689  24.771   9.055  0.1849 -0.1272 -0.2658
21842W        W53058   2.345  15.248   8.943  0.0283 -0.1351 -0.0761
21843W        W53059  23.539   1.552   9.645 -0.3972  0.3847  0.0808
21844W        W53060   0.767   7.535   1.953  0.1181 -0.1197  0.1371
21845W        W53061   4.210  16.264   0.342  0.1288 -0.2321  0.1463
21846W        W53062  22.717  26.560   9.355  0.0808 -0.1031  0.2027
21847W        W53063   0.028   7.883  10.154 -0.1894 -0.1103  0.5106
21848W        W53064   6.731  23.350   0.178  0.0150  0.0341  0.1063
21849W        W53065  11.378  16.441   3.769  0.2678 -0.1001 -0.1382
21850W        W53066  25.731  16.714   7.383  0.1557 -0.1986  0.0250
21851W        W53067   1.728  23.248   0.193  0.1995  0.5210  0.1192
21852W        W53068   1.186  11.313   2.586 -0.0387 -0.1307 -0.1634
21853W        W53069   3.138   5.569   3.198  0.2988  0.1045  0.1824
21854W        W53070  26.700  26.147   9.535 -0.2850 -0.1224 -0.3370
21855W        W53071  15.866   4.456   0.783 -0.0002 -0.1287 -0.3530
21856W        W53072  24.915   6.146   9.211 -0.0279 -0.1646  0.0440
21857W        W53073  14.619   4.611   2.142  0.0927  0.3734  0.2226
21858W        W53074  19.147   9.285   7.687 -0.2169  0.0277 -0.0025
21859W        W53075   2.108  12.662   8.002  0.1523 -0.1787 -0.0636
21860W        W53076   8.289  24.837   9.139  0.0467 -0.3571 -0.1744
21861W        W53077  18.693   0.388   2.888  0.1847 -0.0660 -0.3681
21862W        W53078  13.628  14.786   1.048  0.1138  0.0996  0.3182
21863W        W53079  23.437   9.439   2.189 -0.0906 -0.2809  0.2143
21864W        W53080  16.464   7.899   2.924 -0.0777  0.0557  0.4716
21865W        W53081   1.232  20.252   9.018 -0.0705 -0.0799  0.2083
21866W        W53082  23.163  16.075   8.550  0.2017  0.3315 -0.4339
21867W        W53083   1.045  23.387   3.044  0.0929  0.3918  0.0565
21868W        W53084  24.713   6.875   1.811 -0.0485 -0.0798 -0.2813
21869W        W53085  25.920   1.088   0.748  0.3600  0.1351 -0.1998
21870W        W53086  11.391  15.892   3.114 -0.2776  0.1687  0.2509
21871W        W53087  23.592  19.996   8.382  0.1116  0.2356 -0.0023
21872W        W53088   1.849  15.856  10.419 -0.0203 -0.0309  0.0426
21873W        W53089  21.674   0.053   1.427  0.1044 -0.1215 -0.1039
21874W        W53090  16.810  17.835   9.255 -0.0279  0.4559  0.0111
21875W        W53091   2.602  13.532   0.680  0.0866  0.2180  0.0440
21876W        W53092  19.724  10.550   0.843 -0.1303  0.1169 -0.0867
21877W        W53093  11.276  21.934   0.525 -0.2515  0.1282 -0.1685
21878W        W53094  24.676  11.871   4.081 -0.0779 -0.0341  0.1766
21879W        W53095  14.870  25.806   3.639 -0.1125  0.4109 -0.3611
21880W        W53096  17.896  12.435   2.132  0.2073 -0.1918 -0.3349
21881W        W53097  21.147  12.646   0.789  0.0802  0.2028  0.2827
21882W        W53098  17.992  20.727   8.899  0.0885 -0.2280 -0.0529
21883W        W53099  23.915  23.742   1.675  0.0483 -0.0376 -0.0034
21884W        W53100  13.148  24.056   9.102  0.0165 -0.0967  0.2833
21885W        W53101  17.833  12.463   9.854  0.0102  0.0830 -0.0053
21886W        W53102   7.402  10.412  10.240 -0.2538 -0.3296 -0.0556
21887W        W53103  12.984  18.244   8.752  0.0919 -0.2355  0.0907
21888W        W53104   2.886  23.580   7.549 -0.0480 -0.0502 -0.2043
21889W        W53105  23.609   1.198   2.799 -0.1497  0.1164 -0.2271
21890W        W53106   1.953  19.111   2.671 -0.0396 -0.0987  0.0553
21891W        W53107  19.191   0.122  10.075  0.0828 -0.1412  0.2710
21892W        W53108  25.445  21.019  10.529  0.0635 -0.0642  0.0050
21893W        W53109  10.366  14.367   1.178 -0.0214  0.2809 -0.1252
21894W        W53110   3.853   4.370   3.003  0.1492  0.2245  0.1398
21895W        W53111   5.066   0.137  10.298 -0.3458 -0.1241  0.1158
21896W        W53112  11.114   2.774  10.100 -0.0184  0.3481  0.0183
21897W        W53113  11.154  20.487   0.762  0.0392 -0.1472 -0.1590
21898W        W53114  19.946   6.439  10.453  0.0903  0.3814 -0.1289
21899W        W53115   4.802  17.106   8.629  0.1450  0.3421 -0.0041
21900W        W53116  17.776   9.499   8.195 -0.1822 -0.1840 -0.1004
21901W        W53117   7.018  12.075   8.263 -0.1650  0.0236  0.1438
21902W        W53118  20.132   3.860   0.768  0.0567 -0.2540  0.0974
21903W        W53119  11.915  14.924   8.767 -0.1895  0.0548 -0.0142
21904W        W53120   2.368  13.583   0.156  0.1742 -0.1684 -0.0715
21905W        W53121  10.541  15.334   9.033  0.0380 -0.0857 -0.3273
21906W        W53122   0.327  17.125   9.646 -0.4214  0.0760  0.1896
21907W        W53123  25.311  23.642   2.834 -0.1171  0.3554  0.0320
21908W        W53124  15.983  10.772   0.455  0.0647 -0.1249 -0.1571
21909W        W53125   5.686   4.586   1.171  0.0551  0.0498  0.2770
21910W        W53126  21.135  18.332   2.013  0.2154 -0.1599 -0.0105
21911W        W53127  17.897  13.583   8.414 -0.0134  0.0470 -0.0158
21912W        W53128   5.709  19.178   3.309 -0.1230  0.0867  0.1717
21913W        W53129  22.681  16.282   8.500  0.0648 -0.1322 -0.0826
21914W        W53130  24.496  23.736   9.875  0.1665  0.1024  0.0186
21915W        W53131  19.889   9.606   2.483  0.4752 -0.1938 -0.1370
21916W        W53132  17.624  24.210   1.946  0.0199 -0.0087  0.0473
21917W        W53133   1.877   0.683   0.477 -0.2905  0.2304  0.1951
21918W        W53134  17.960  19.835   0.527  0.0067 -0.0973  0.1522
21919W        W53135  22.505  12.245   9.776  0.0068 -0.2687 -0.1917
21920W        W53136   5.101   8.859   7.894 -0.0425 -0.0569  0.1061
21921W        W53137  23.809  24.319   9.643  0.2019  0.2188  0.2181
21922W        W53138  12.308  26.260   2.648 -0.1702  0.0543 -0.1268
21923W        W53139  10.475  17.693   8.115  0.3596  0.0569  0.0105
21924W        W53140  26.517  19.474   9.409 -0.6083 -0.0348  0.0033
21925W        W53141   9.738  14.607   2.212 -0.2040  0.1253  0.0585
21926W        W53142  12.459  24.209   0.191 -0.1201 -0.1277  0.1761
21927W        W53143   2.519  17.307   2.073 -0.0835 -0.2270 -0.2956
21928W        W53144   6.152   3.990   8.283 -0.2640 -0.0969  0.2115
21929W        W53145  13.928   0.099   3.698 -0.1048 -0.3632  0.0566
21930W        W53146   4.702   8.402   0.070  0.5330  0.2299  0.1661
21931W        W53147  23.729   9.525   2.747 -0.3212  0.0848 -0.0807
21932W        W53148  13.015   6.302   9.360  0.1920 -0.4922  0.1088
21933W        W53149  25.731  10.177   9.800 -0.0705 -0.2403  0.3072
21934W        W53150  23.126   6.073   8.094  0.1583  0.1450  0.3255
21935W        W53151   3.216  21.830   9.398  0.2849 -0.0654 -0.2351
21936W        W53152  17.127  18.678   9.142 -0.0319 -0.0357 -0.2490
21937W        W53153  13.888  11.577  10.476 -0.0562 -0.1280 -0.3124
21938W        W53154   7.318   4.392   1.220  0.1457  0.0050  0.2040
21939W        W53155   9.709  20.542   8.690  0.0173  0.0105 -0.1183
21940W        W53156   1.395  13.967   1.261  0.1102 -0.0636 -0.0277
21941W        W53157   5.388   2.238   3.030  0.0626 -0.1017 -0.3204
21942W        W53158  13.444  14.614   8.292 -0.2439 -0.1159 -0.1679
21943W        W53159   9.428   9.858  10.034  0.1003  0.2533  0.1707
21944W        W53160  18.226   1.487   8.932 -0.1708 -0.1174  0.0929
21945W        W53161   5.407   5.591   2.365 -0.2969  0.0328 -0.2493
21946W        W53162   7.679   4.430   3.360 -0.1519  0.1664  0.3471
21947W        W53163   6.512  14.985  10.515 -0.0923  0.0107  0.1342
21948W        W53164   8.232   4.469   0.818  0.1711  0.1232 -0.1794
21949W        W53165  11.288   0.614   9.860 -0.0836 -0.0010 -0.0074
21950W        W53166  11.257  22.596   8.601 -0.1058 -0.1292 -0.3466
21951W        W53167   4.212   3.153   1.476 -0.2693 -0.3316  0.0890
21952W        W53168   2.331  27.216  10.375  0.0158 -0.0209 -0.2787
21953W        W53169  16.266  11.482   8.806 -0.0836 -0.2324  0.2752
21954W        W53170  13.057   2.255  10.309 -0.2366  0.0038 -0.2246
21955W        W53171  14.709  22.025   0.249 -0.1002 -0.3080 -0.0211
21956W        W53172  18.917   3.034   2.331  0.2159  0.1280  0.2089
21957W        W53173   5.950  25.632   2.631 -0.1413 -0.2352  0.0571
21958W        W53174  19.881  10.455   1.805  0.1357 -0.0032 -0.0426
21959W        W53175   5.328  26.972   8.260  0.1118 -0.0074  0.1942
21960W        W53176  21.194  14.583   2.950  0.1446 -0.0154 -0.0988
21961W        W53177  12.613  18.969   8.111 -0.1739  0.0644  0.0117
21962W        W53178  18.406  19.165   2.771 -0.1146 -0.0468  0.0445
21963W        W53179  17.182   7.137   8.767 -0.0446 -0.1104  0.0575
21964W        W53180   0.468   7.609   8.548  0.0107 -0.0873  0.2951
21965W        W53181  18.606  26.635   0.778  0.0473 -0.1482 -0.3361
21966W        W53182  22.368   2.880   3.278  0.0063  0.2858 -0.1982
21967W        W53183   1.767  11.078   3.094  0.2060  0.0579 -0.0437
21968W        W53184   2.574  14.266   9.222  0.1184  0.1353  0.3311
21969W        W53185  16.974  15.779  10.371  0.0966 -0.1667 -0.0333
21970W        W53186   8.142  20.594   7.735 -0.1582  0.1134  0.3262
21971W        W53187  23.088   5.051   2.257  0.2271  0.2255  0.0655
21972W        W53188  16.769  26.298   3.202 -0.1258 -0.0431  0.0203
21973W        W53189  19.158  23.253   9.824 -0.1436 -0.1857 -0.1759
21974W        W53190  19.552   3.895   9.109  0.0900  0.1047  0.0787
21975W        W53191   6.015  26.097   2.776  0.1721 -0.0353 -0.0265
21976W        W53192  11.622  20.708   0.475  0.0979 -0.0624 -0.0999
21977W        W53193  26.712  18.492   1.832  0.1210  0.0530 -0.0705
21978W        W53194  18.043  12.184   1.300  0.1313  0.1041  0.0365
21979W        W53195  26.757  20.470   1.397 -0.4181  0.0390 -0.5639
21980W        W53196  20.791  21.576   0.823  0.0245 -0.2635 -0.3999
21981W        W53197  24.415  17.457   7.546  0.0105  0.1059 -0.0123
21982W        W53198  13.887  25.515   0.931  0.1920 -0.2168  0.0747
21983W        W53199  20.330  17.895   1.365  0.2224 -0.0682  0.0420
21984W        W53200   3.362  27.231   1.760 -0.0592  0.3492  0.0191
21985W        W53201  27.258  14.804   7.715  0.1987  0.0402  0.1067
21986W        W53202  24.000  24.926  10.534 -0.2379  0.1463 -0.0368
21987W        W53203   3.045  11.762   2.241  0.4000  0.0287  0.0154
21988W        W53204  17.521   1.154   2.754 -0.1550  0.3156  0.0763
21989W        W53205   0.527   8.404   8.282  0.3792 -0.0080 -0.1064
21990W        W53206  16.298  13.284   9.331  0.2629 -0.0588  0.0879
21991W        W53207  26.331  20.795   2.955  0.2607  0.1371 -0.0196
21992W        W53208   2.672  15.015   8.490 -0.3049  0.1224  0.2501
21993W        W53209   8.254  15.062   2.017 -0.0366  0.1685 -0.1857
21994W        W53210   3.253  27.467   8.549 -0.1842 -0.0148  0.0354
21995W        W53211  23.038  14.588   8.111 -0.0387 -0.1927  0.1047
21996W        W53212  17.288   3.050  10.099  0.4367  0.1604 -0.1064
21997W        W53213  22.225   9.377   0.829  0.2914  0.2866  0.1414
21998W        W53214  16.720  16.599   9.921  0.0242  0.2275 -0.1417
21999W        W53215  16.382  21.090   3.356  0.1397 -0.2871 -0.0402
22000W        W53216   7.439   2.640   7.739  0.0292 -0.0411 -0.3377
22001W        W53217   2.569   5.708  10.301 -0.3771  0.0474 -0.1830
22002W        W53218  21.991  14.005   1.653  0.2630  0.0617 -0.3383
22003W        W53219  14.578  22.212   2.556 -0.0919  0.0667 -0.0335
22004W        W53220   8.119   7.251   0.609 -0.1403 -0.0559  0.0730
22005W        W53221   9.404  24.603   2.976  0.0218  0.1049  0.1332
22006W        W53222   1.063   6.794   9.965 -0.0817 -0.0490 -0.1102
22007W        W53223  17.605   7.812   1.808 -0.0215 -0.2907  0.0533
22008W        W53224  24.715  22.819  10.204  0.0072 -0.2243 -0.0278
22009W        W53225  15.067  13.004   3.581 -0.0668  0.0199  0.3234
22010W        W53226  21.341   0.977   0.494 -0.2674  0.0216  0.2324
22011W        W53227   8.866  12.255   7.787 -0.0576 -0.2382 -0.1745
22012W        W53228   2.019  24.305   3.141 -0.1751 -0.2822 -0.0412
22013W        W53229   1.525  21.649   0.946  0.0708  0.1787  0.1408
22014W        W53230  16.357  27.560   3.961  0.0235  0.1754 -0.3434
22015W        W53231  14.691   1.302   2.583 -0.1087 -0.1929 -0.1442
22016W        W53232  12.660   2.125   9.455 -0.1385 -0.2233  0.1315
22017W        W53233   4.782  20.605   1.355 -0.1585  0.2457 -0.0606
22018W        W53234   3.804   4.333   9.658  0.1445 -0.2551 -0.0965
22019W        W53235  22.686   3.072   2.510  0.0339 -0.0538  0.1238
22020W        W53236   3.960   4.511   1.416 -0.1644 -0.1002  0.1506
22021W        W53237   4.005  21.380  10.286 -0.0467 -0.2462  0.2702
22022W        W53238  20.740   6.538   2.820 -0.0019  0.1628  0.0839
22023W        W53239   7.240  14.980   2.681  0.3734 -0.3086 -0.1363
22024W        W53240  25.272   1.636   2.030  0.0324  0.0114  0.1527
22025W        W53241  10.902   1.183   8.282 -0.1773 -0.1526  0.0294
22026W        W53242  13.468  23.054   8.405 -0.2739 -0.1235  0.0916
22027W        W53243  23.189  24.958   0.554  0.0870 -0.5259 -0.1801
22028W        W53244  23.192   6.086   2.112 -0.0180  0.0570 -0.2435
22029W        W53245   2.419   1.159   0.366 -0.1836  0.4904  0.2992
22030W        W53246   1.074   0.275  10.359 -0.0201  0.1391  0.0648
22031W        W53247  26.546   0.632   0.902  0.3339  0.2857 -0.2227
22032W        W53248  27.304  26.619   3.931  0.3088  0.0339  0.0072
22033W        W53249  24.250  20.525   8.668  0.2088  0.0275 -0.5399
22034W        W53250   6.323  26.747   3.232 -0.1668 -0.1935  0.1372
22035W        W53251   4.625   1.952   9.522  0.0002 -0.1607 -0.3066
22036W        W53252   5.066  23.197   3.609  0.2733 -0.1500  0.0999
22037W        W53253  21.757  26.543   9.500  0.6578  0.1124 -0.1129
22038W        W53254  10.144  22.674   7.437 -0.1864 -0.0800 -0.0616
22039W        W53255  13.459   8.980   0.870  0.0178  0.0217  0.0675
22040W        W53256  13.039  12.942   0.618 -0.0124  0.0111  0.1256
22041W        W53257  13.379  10.814   0.786 -0.0265 -0.1272  0.0860
22042W        W53258  16.164   0.870   0.927 -0.0278  0.1750 -0.1229
22043W        W53259  23.838   9.816   9.065  0.1562  0.1330  0.3028
22044W        W53260   7.978   2.911   9.425  0.0350  0.2975  0.2391
22045W        W53261  13.709  23.962   9.970 -0.0900  0.2343  0.1722
22046W        W53262   7.042  26.722   3.403  0.1514  0.2489  0.0916
22047W        W53263  21.456  21.914   9.009  0.0750 -0.0049  0.0112
22048W        W53264  25.673  11.711   1.484 -0.0518  0.1278 -0.2423
22049W        W53265  25.134  24.363   8.279  0.0787  0.3113  0.0595
22050W        W53266   8.848  21.090   0.481 -0.0999  0.0562  0.0492
22051W        W53267  18.501  20.778   1.633 -0.1287  0.2951 -0.1432
22052W        W53268  25.649   0.292   9.675  0.1211 -0.1739  0.1242
22053W        W53269   0.101  10.828   8.846  0.0600 -0.0563 -0.0743
22054W        W53270  24.395  17.106   2.735  0.0007 -0.2887  0.3280
22055W        W53271  14.584   3.775   1.952  0.2188 -0.2005  0.1616
22056W        W53272   1.067   3.886   1.700 -0.0082  0.0452  0.2783
22057W        W53273   0.009  23.020   7.792  0.1191 -0.0368  0.1669
22058W        W53274  19.070   8.634  10.026  0.0363 -0.1145 -0.3517
22059W        W53275  17.480  24.452   0.442 -0.1717  0.0589 -0.0388
22060W        W53276  21.673   6.051   1.469 -0.5265  0.1162  0.0548
22061W        W53277   0.178   3.809   8.651 -0.2296 -0.1860  0.3953
22062W        W53278  23.690  23.457   9.525  0.0727  0.1361  0.1018
22063W        W53279  18.975  27.161   4.015  0.3978 -0.0714  0.2698
22064W        W53280   8.849  21.091   2.793 -0.0942 -0.0455 -0.1234
22065W        W53281   6.439   6.712   8.816 -0.0725 -0.2600 -0.1624
22066W        W53282  21.427   1.721   2.121  0.0352 -0.3444  0.1140
22067W        W53283  19.129  25.537   8.107  0.2356 -0.2560  0.1475
22068W        W53284  13.557  22.679   1.746  0.1658  0.1743  0.1628
22069W        W53285  23.155   6.895   8.780  0.0847 -0.1644  0.3502
22070W        W53286   4.821  16.615   2.360  0.2325  0.0840 -0.1768
22071W        W53287  26.570   5.311   8.416 -0.2798 -0.2461  0.0482
22072W        W53288   5.353  23.873   0.488  0.0032 -0.0601 -0.0513
22073W        W53289  26.457  26.356   0.614 -0.2331 -0.3701  0.2632
22074W        W53290  16.337  24.018   8.480  0.0827  0.0729  0.1070
22075W        W53291   7.913  21.386   9.172 -0.0141  0.1640  0.2607
22076W        W53292   7.042  13.247   0.722 -0.0706 -0.3001 -0.2159
22077W        W53293  19.942  21.158   0.798  0.1847  0.2656 -0.0682
22078W        W53294   5.795  15.779   0.232 -0.0937  0.3064 -0.1651
22079W        W53295  18.903  22.200   8.496  0.2061  0.1321  0.0300
22080W        W53296  21.463  18.440   9.735  0.1550 -0.0615 -0.0486
22081W        W53297  10.859  21.686   9.088  0.1014  0.0876  0.1652
22082W        W53298  21.010  11.403   7.905  0.0710  0.0324  0.2520
22083W        W53299  25.971   1.295   9.772 -0.0335  0.0191  0.0817
22084W        W53300  27.007  18.494   2.299 -0.0465 -0.1115  0.3648
22085W        W53301  15.797  10.363   9.452  0.2581  0.0285  0.1148
22086W        W53302  15.743   4.490   9.176 -0.1159  0.0125  0.1395
22087W        W53303  15.184  26.202  10.264 -0.3683  0.0931  0.1123
22088W        W53304   8.786   4.446   0.018 -0.1767  0.2545  0.0942
22089W        W53305   1.807   6.595   1.938 -0.1360 -0.1458  0.0471
22090W        W53306  12.590  19.501   0.247 -0.3277 -0.0220  0.0291
22091W        W53307   7.444  17.574  10.235  0.0011 -0.0709  0.4897
22092W        W53308   0.992  24.060   2.288  0.2799 -0.2461 -0.1627
22093W        W53309  26.312  17.698   2.294 -0.2733 -0.0639 -0.1872
22094W        W53310   2.573  10.561   1.381  0.1411  0.2527 -0.0246
22095W        W53311  23.829  10.898  10.200  0.1044  0.1962  0.3032
22096W        W53312  18.055   2.835   3.100 -0.4983 -0.1221 -0.0057
22097W        W53313   1.248  26.032   9.494  0.3445  0.1029 -0.1613
22098W        W53314   1.843   9.571   8.608  0.0023 -0.1133 -0.0944
22099W        W53315  19.800   1.780  10.478 -0.0015  0.0126 -0.0909
22100W        W53316  26.621   6.409   9.701 -0.2517 -0.0087  0.1338
22101W        W53317  13.247  16.360   3.830  0.1963  0.4689 -0.1238
22102W        W53318   2.652  15.253   1.569 -0.1167  0.0578 -0.0144
22103W        W53319  24.159   5.476   3.208  0.0514 -0.3321 -0.0091
22104W        W53320   2.362  14.064   7.616  0.1916  0.2251  0.0442
22105W        W53321  18.146  21.368   0.479  0.2262  0.0021 -0.0587
22106W        W53322  24.292   6.822   9.822  0.0726 -0.0897 -0.3009
22107W        W53323   6.073  15.140   3.546  0.1840 -0.0487  0.0696
22108W        W53324  16.409  10.956   0.496 -0.0473 -0.2572 -0.1705
22109W        W53325  16.401  23.853   2.187 -0.0921 -0.0911  0.1001
22110W        W53326  22.618   9.656   0.264 -0.2137  0.1793 -0.1094
22111W        W53327   5.214   6.304   3.481  0.0979  0.0145  0.1632
22112W        W53328   2.616   5.392   8.086 -0.1610  0.1579 -0.3759
22113W        W53329   2.155  13.843   8.557  0.4878 -0.1877  0.0203
22114W        W53330   8.800  17.741   0.388  0.0294 -0.2146  0.1175
22115W        W53331  25.421  17.007   8.595  0.1420 -0.0623  0.0988
22116W        W53332   5.515  12.662   8.633  0.1155  0.0679  0.1217
22117W        W53333   1.072  21.041   9.405 -0.0105  0.0297 -0.1148
22118W        W53334  22.312  10.132   0.219  0.0706  0.2056 -0.0498
22119W        W53335   8.721  18.246   2.854  0.0908 -0.1056 -0.0061
22120W        W53336   3.867  11.260   8.984  0.4151  0.3300  0.0120
22121W        W53337   4.740  20.482   0.851 -0.1892  0.1612 -0.0255
22122W        W53338   3.821   2.815   2.913 -0.0081  0.3124 -0.0323
22123W        W53339  19.109  13.619   9.854 -0.2456  0.1218 -0.2237
22124W        W53340  18.307  14.804   8.092  0.0465  0.2357 -0.0484
22125W        W53341   1.787   5.255   8.498 -0.1253  0.3167 -0.0172
22126W        W53342  19.837  20.645   1.382  0.2110  0.2423 -0.1581
22127W        W53343  10.068   6.252   3.087  0.0569  0.1382  0.2647
22128W        W53344   5.841   0.336  10.021 -0.1143 -0.1926  0.2016
22129W        W53345  13.637  10.709   9.647  0.0849 -0.0808 -0.2264
22130W        W53346   1.791  15.109   1.006 -0.1377  0.0595  0.1355
22131W        W53347  13.052  12.587   7.962 -0.1208  0.1476 -0.1306
22132W        W53348  24.569   9.072   0.809 -0.1365 -0.1052 -0.2534
22133W        W53349  25.206  18.309   1.402 -0.0417 -0.1342 -0.1394
22134W        W53350   2.976   2.639   8.654  0.3531  0.0092 -0.1401
22135W        W53351  19.575  18.670   1.310  0.2105 -0.3417 -0.0161
22136W        W53352  14.232  11.265   2.363  0.3903  0.1507 -0.1214
22137W        W53353   9.967  27.027   3.321  0.0807  0.0476 -0.0110
22138W        W53354  22.964  17.937   1.344  0.1873 -0.0664  0.0913
22139W        W53355   9.234   6.261   1.292  0.5721 -0.3699 -0.2778
22140W        W53356   7.141  21.583   3.508  0.0125  0.3795 -0.1121
22141W        W53357  24.870  17.166   3.018 -0.1727  0.1277 -0.1321
22142W        W53358  19.637   6.032   8.927 -0.0095 -0.1684  0.1542
22143W        W53359  14.404   2.828   0.778  0.2340  0.0293 -0.3091
22144W        W53360  10.025   0.937   8.721  0.0811  0.1355 -0.0740
22145W        W53361  17.443  18.750   9.868 -0.0188 -0.2533 -0.1863
22146W        W53362  18.657   2.068   7.550 -0.1030 -0.1215 -0.0101
22147W        W53363  23.144   6.954   0.490  0.4296 -0.1525  0.0977
22148W        W53364  16.554  19.672   0.334  0.3682 -0.0141 -0.2881
22149W        W53365  18.007  19.852  10.044  0.0898  0.0500 -0.0254
22150W        W53366   1.674  15.328   1.830  0.0303  0.0494 -0.3172
22151W        W53367   8.857  24.116   7.914  0.2425  0.4130  0.1118
22152W        W53368  20.130  13.718   8.379 -0.1509  0.0569  0.0524
22153W        W53369  10.000   8.206   1.269  0.0276 -0.0111  0.1574
22154W        W53370  17.621  16.605   8.389  0.1826  0.1170 -0.0806
22155W        W53371   6.415  12.128   7.451 -0.2426 -0.2342  0.2583
22156W        W53372  19.179   8.334   1.627 -0.2616  0.0659  0.0137
22157W        W53373   9.795   4.856   0.556 -0.0852 -0.1774 -0.1110
22158W        W53374   7.876  23.568   1.540 -0.2910  0.2985  0.0120
22159W        W53375  21.593  21.562   8.161  0.0065 -0.0177 -0.0075
22160W        W53376   1.641   1.938   1.527 -0.2117  0.0543  0.2331
22161W        W53377   6.199  24.825   3.141 -0.5525  0.1909  0.1084
22162W        W53378  10.018   2.504   9.252  0.0652 -0.2689 -0.0544
22163W        W53379  21.361  17.678   2.848  0.1920 -0.1209 -0.0907
22164W        W53380  25.528   0.868   8.134 -0.1602  0.2877 -0.1478
22165W        W53381  11.939  25.909   2.665  0.1350  0.0368  0.1331
22166W        W53382   7.451   3.958   7.787  0.1850  0.1643  0.0397
22167W        W53383  10.930  15.811   0.201 -0.0211  0.0159  0.1347
22168W        W53384  21.588  20.275   1.338 -0.0660 -0.0140 -0.2240
22169W        W53385  14.188  10.534   3.455  0.0882  0.2295 -0.2749
22170W        W53386  14.269  17.056   3.210 -0.2263 -0.2201 -0.1604
22171W        W53387  16.868   3.283  10.232 -0.2595  0.1862  0.0485
22172W        W53388  15.778  25.987   8.733  0.1027 -0.3211 -0.0176
22173W        W53389  18.347   6.133   9.627 -0.0359 -0.0484 -0.0927
22174W        W53390  22.528   2.195   8.947 -0.0753  0.2883 -0.0476
22175W        W53391  25.557  22.130   0.476 -0.2511  0.0511  0.0668
22176W        W53392   2.022  23.710   9.531 -0.4517  0.1051 -0.2733
22177W        W53393   2.294  23.351   9.288 -0.0642  0.0454 -0.1082
22178W        W53394  20.541  11.830   3.876 -0.0680 -0.1620 -0.0393
22179W        W53395  15.753  24.892   3.171  0.3054 -0.3078  0.0985
22180W        W53396   2.743  19.086   1.763 -0.1395  0.5169  0.2794
22181W        W53397  18.390  13.759   0.111  0.1747 -0.2972  0.0216
22182W        W53398  17.313  24.446   2.328 -0.2301  0.0083  0.3618
22183W        W53399   3.905  15.002   8.500 -0.1000 -0.0739 -0.4514
22184W        W53400   2.102   2.414   8.796 -0.0865 -0.1009 -0.4061
22185W        W53401  20.541  22.133   9.016  0.0995  0.2800  0.0897
22186W        W53402   2.385  19.143   8.899  0.0630 -0.0558 -0.0934
22187W        W53403   1.475   8.234   1.005  0.0026  0.2173  0.0419
22188W        W53404  22.770   3.874   1.985  0.0753 -0.1742 -0.1035
22189W        W53405   9.677  16.831   2.782  0.0562 -0.3114  0.2003
22190W        W53406  13.059   3.846  10.506  0.0437 -0.0810  0.2989
22191W        W53407   4.225  10.498   8.222 -0.1600  0.0402 -0.1473
22192W        W53408   6.622   7.302   2.548 -0.0812  0.2979  0.4207
22193W        W53409   3.070   0.394  10.437  0.0774  0.0988 -0.1686
22194W        W53410  26.139   0.646  10.040 -0.2212  0.0269  0.0674
22195W        W53411   3.058  18.439   2.032 -0.0277  0.2334 -0.2773
22196W        W53412  19.686  21.322   2.797 -0.2754  0.4554 -0.1647
22197W        W53413  17.429  13.365   1.923 -0.0603  0.0371  0.1392
22198W        W53414   2.324   4.693   9.001  0.0128 -0.0450 -0.1892
22199W        W53415   4.847  25.053   1.165 -0.0755  0.1087  0.1647
22200W        W53416   7.123   6.357   3.465 -0.4887  0.1237  0.1904
22201W        W53417   7.918  13.653   2.754 -0.1003 -0.3365 -0.2932
22202W        W53418  13.712  23.559   3.246 -0.3064 -0.1844  0.1256
22203W        W53419  12.278   6.396   7.537 -0.2170  0.0743 -0.4413
22204W        W53420   3.797  14.783  10.540 -0.0098 -0.1140 -0.0408
22205W        W53421  26.864   9.590   1.960 -0.1732  0.1562  0.0434
22206W        W53422   1.727  24.622   2.900 -0.2492 -0.1818 -0.0080
22207W        W53423  12.152  24.818   1.932  0.0296 -0.1147 -0.0307
22208W        W53424  16.168  27.389   8.840 -0.1125 -0.0582 -0.2646
22209W        W53425  16.056  21.570   1.724  0.1343  0.0924  0.0321
22210W        W53426   5.684  12.179   8.555 -0.0290 -0.0869  0.3346
22211W        W53427   3.920  14.611   9.256 -0.0443 -0.1357  0.2904
22212W        W53428  26.564  16.361   0.636  0.0616  0.1077  0.1572
22213W        W53429   4.005  13.224   9.810 -0.1378 -0.0795 -0.2553
22214W        W53430  13.366  16.397  10.171  0.1419  0.1619 -0.1263
22215W        W53431   5.936   1.687   7.700 -0.2561 -0.0585  0.0106
22216W        W53432   4.064   2.659   7.593 -0.1013 -0.0712 -0.0413
22217W        W53433   2.876  24.336   8.774 -0.2412  0.0625 -0.1509
22218W        W53434  11.239   7.394   2.557 -0.0486 -0.1474  0.0843
22219W        W53435  24.368  26.184   8.702 -0.3127 -0.2512  0.4029
22220W        W53436  21.608   7.095   3.444  0.0813  0.0984 -0.1604
22221W        W53437  12.893  26.491   1.035 -0.3142 -0.2354  0.1166
22222W        W53438  17.882  23.733   3.148 -0.0848  0.1905 -0.0238
22223W        W53439  24.942   4.195  10.133 -0.1307 -0.0885  0.1402
22224W        W53440  11.665  23.106   9.775 -0.0917  0.0682  0.1702
22225W        W53441   4.570  10.681   8.576  0.0866 -0.2423  0.1831
22226W        W53442  17.913  21.783   2.209  0.0981  0.3332  0.5007
22227W        W53443  21.690  11.785   9.647 -0.1251 -0.2045  0.1896
22228W        W53444  10.969  14.050   9.602 -0.4088 -0.2414 -0.0845
22229W        W53445  13.888  18.484   0.787  0.1923 -0.0469 -0.0123
22230W        W53446  23.197   7.433   1.661 -0.3095 -0.3256  0.1231
22231W        W53447  22.328   9.870   0.773 -0.1654 -0.1452  0.1666
22232W        W53448  20.070  10.105   2.555 -0.2676 -0.2975  0.1855
22233W        W53449   0.968   4.880   9.129  0.2132  0.1206 -0.0103
22234W        W53450  12.959   7.849   3.158  0.4061  0.1773  0.0747
22235W        W53451  22.495  12.656   2.871  0.0232  0.2376  0.0767
22236W        W53452  21.021  17.642   9.320  0.1325  0.1102  0.0277
22237W        W53453  14.037  14.973   0.503  0.5549  0.0246 -0.1365
22238W        W53454  14.634  19.396   1.526  0.0652  0.1344  0.3243
22239W        W53455  17.482   9.971   2.045 -0.0352 -0.2415 -0.1380
22240W        W53456  21.597  26.734   2.015 -0.2918 -0.0019  0.3638
22241W        W53457  23.762  14.140   8.789 -0.2838 -0.0079  0.1905
22242W        W53458  22.231  17.415   3.057  0.0125  0.1063  0.1715
22243W        W53459   3.778  20.265   9.651  0.1986 -0.4183 -0.1585
22244W        W53460   1.125   0.153   3.424  0.0116  0.0587 -0.0509
22245W        W53461   6.486  22.886   0.230 -0.2614  0.1619 -0.3799
22246W        W53462  14.309   9.686   9.786 -0.2336  0.0078  0.2112
22247W        W53463  17.478  16.387   9.067  0.0132  0.0510  0.0178
22248W        W53464  23.902  20.444   8.315  0.0343 -0.0271 -0.3519
22249W        W53465  17.837  10.612   9.829 -0.0198  0.1415 -0.2794
22250W        W53466  15.818  23.222   9.333  0.3474  0.0563  0.0174
22251W        W53467  27.384  13.277   3.414  0.0386  0.2583  0.2382
22252W        W53468   2.937  15.966   7.863  0.2895 -0.2325  0.0974
22253W        W53469  19.246   4.508  10.104 -0.0414  0.0496  0.4420
22254W        W53470  10.588  17.524   1.750 -0.2250 -0.1061  0.1190
22255W        W53471   4.241  17.740   7.962 -0.0487 -0.3024  0.1477
22256W        W53472  27.392   9.671   8.065 -0.0372 -0.4023 -0.1841
22257W        W53473   0.646  18.238   9.885 -0.0371  0.0168  0.0351
22258W        W53474   6.270   9.852   8.752  0.1369  0.2118  0.0964
22259W        W53475   9.587   1.644   8.898 -0.3205 -0.1558 -0.1559
22260W        W53476   3.114  12.177   8.662 -0.1046 -0.4100 -0.3808
22261W        W53477  27.259   1.918   9.138 -0.0025 -0.1239 -0.0489
22262W        W53478   1.765  21.278   9.158 -0.1625 -0.2045  0.2039
22263W        W53479   4.119   8.768   7.433 -0.3907 -0.0023 -0.1811
22264W        W53480  24.729  14.330   0.097 -0.2339  0.1325 -0.0672
22265W        W53481  15.801  18.201   3.384  0.0861  0.2926  0.0803
22266W        W53482  14.180  10.013   2.896 -0.0622  0.1347 -0.2754
22267W        W53483  25.071  16.471   0.960 -0.1337  0.1099  0.2147
22268W        W53484  13.836   3.575   2.200  0.0072  0.0256  0.1381
22269W        W53485   1.279  23.378   1.640  0.0825 -0.2390  0.3080
22270W        W53486  26.696  15.766   0.388  0.0092  0.1831 -0.2602
22271W        W53487   3.381  19.287   7.539 -0.0939 -0.0894  0.2302
22272W        W53488  13.365   4.574   3.739  0.0212 -0.2403  0.1289
22273W        W53489  15.289   3.136   2.923  0.0133 -0.0287 -0.1786
22274W        W53490  19.352   2.029   8.059  0.3114 -0.0455 -0.0996
22275W        W53491   5.761   7.471   8.745  0.3058  0.1342 -0.1079
22276W        W53492  14.400  18.204   9.576 -0.0646  0.0353 -0.1857
22277W        W53493  23.940   2.183  10.287 -0.1821  0.2193  0.3870
22278W        W53494   4.213  19.074   8.307 -0.0538 -0.0806 -0.2943
22279W        W53495   1.873  22.188   2.578 -0.0637 -0.2663 -0.2846
22280W        W53496   8.389  21.175   0.666  0.1538 -0.0434  0.2258
22281W        W53497  17.792  10.476   3.272 -0.0322 -0.0218  0.0939
22282W        W53498  17.460   9.481  10.181  0.0453  0.0663  0.1350
22283W        W53499  15.038  25.268   2.763  0.2236  0.0283  0.2758
22284W        W53500   2.995  14.932   1.802  0.1002  0.1330 -0.2721
22285W        W53501   5.474  22.302   2.754  0.2340 -0.4322  0.0860
22286W        W53502   0.434  25.842   1.162 -0.0837  0.2771 -0.0246
22287W        W53503  20.698   8.377   1.989  0.0368 -0.1123 -0.0107
22288W        W53504  26.296  23.227   7.603  0.0371 -0.0361  0.2987
22289W        W53505  19.878   3.620   2.577 -0.1134  0.2065 -0.1178
22290W        W53506   6.405  20.519  10.404  0.0045 -0.0855 -0.2051
22291W        W53507   5.290   7.236   9.876  0.1194 -0.1109 -0.0576
22292W        W53508  10.462   9.975   0.458 -0.1121 -0.0515  0.0256
22293W        W53509   4.047  15.070   8.029 -0.0345 -0.4020  0.1446
22294W        W53510   4.463  22.654   2.448 -0.2181  0.0695 -0.1622
22295W        W53511   3.060  15.126   3.033  0.0801 -0.3077  0.1550
22296W        W53512  14.478  21.298   2.445 -0.1409  0.2022  0.1160
22297W        W53513  20.028  23.496   1.862 -0.0868  0.2549  0.1911
22298W        W53514   7.348  20.636   2.929 -0.0504 -0.1647 -0.0933
22299W        W53515  27.252   9.824  10.109  0.0698  0.0404 -0.1925
22300W        W53516  24.385  20.406   0.949 -0.3500  0.1950 -0.0693
22301W        W53517  13.432  11.129   8.313 -0.2666 -0.1092  0.0226
22302W        W53518  19.461  12.724  10.060 -0.0220 -0.2029  0.3339
22303W        W53519  12.408  23.406   7.888 -0.1990 -0.3692 -0.0488
22304W        W53520  13.136  23.628   9.863 -0.2221  0.0038  0.1816
22305W        W53521  26.274  16.966   1.559  0.1148 -0.0977 -0.2043
22306W        W53522  20.858  21.072   0.719  0.3202 -0.0510 -0.0745
22307W        W53523  21.122  12.531   8.961 -0.0286  0.1025 -0.1685
22308W        W53524   2.800   5.635   9.310  0.0943  0.0090  0.0149
22309W        W53525   9.842   4.663   9.601  0.0245 -0.0198 -0.1940
22310W        W53526  14.868  19.335   1.023  0.0461 -0.1721  0.2516
22311W        W53527  23.399  12.768   8.733 -0.2058  0.1103  0.2971
22312W        W53528  19.396  18.606   7.843 -0.1273 -0.0347 -0.0958
22313W        W53529   8.962  18.684   2.657 -0.0007 -0.0998 -0.1306
22314W        W53530  15.050  10.365   9.877 -0.3102 -0.0126 -0.0820
22315W        W53531   4.922  14.173   2.034 -0.1208 -0.0052 -0.1432
22316W        W53532  14.330  11.410   0.462  0.1570  0.1552  0.1873
22317W        W53533   2.102   4.847   0.021 -0.1484 -0.0919  0.0121
22318W        W53534  11.596   6.135  10.386 -0.0789 -0.0936 -0.3176
22319W        W53535   6.213   1.545   0.518  0.0228 -0.0242 -0.0008
22320W        W53536  10.741  25.482   0.826  0.1537  0.2567  0.1095
22321W        W53537  17.906   4.109   9.128  0.0990 -0.1470  0.1570
22322W        W53538  10.458   0.865   2.012  0.1371 -0.4083 -0.0961
22323W        W53539  14.224   4.569   0.456 -0.2033 -0.1200  0.2081
22324W        W53540  13.871   1.210   2.887  0.1596 -0.0285 -0.1796
22325W        W53541   2.436  24.527   3.958 -0.0232 -0.3714 -0.2178
22326W        W53542   2.281  25.925  10.034  0.0050  0.1836 -0.3052
22327W        W53543  23.500   4.952   1.494  0.0562  0.0347  0.0598
22328W        W53544   5.187  17.009   8.962 -0.0319  0.1425  0.0876
22329W        W53545  25.653   9.218   2.676  0.1894  0.1397 -0.0612
22330W        W53546   4.076  24.989   7.924  0.1917  0.0974  0.1021
22331W        W53547   4.056   5.791   8.853  0.0652  0.3574 -0.2547
22332W        W53548  11.965  24.329   3.580 -0.2093  0.0448  0.0236
22333W        W53549   2.676   3.134   0.469  0.2682  0.2545  0.1587
22334W        W53550   9.494   0.292   3.238 -0.0311  0.1904  0.0309
22335W        W53551  17.526  15.938  10.137 -0.4127 -0.1447  0.0106
22336W        W53552  14.088  22.968  10.448 -0.0512 -0.1160 -0.0833
22337W        W53553   5.598  13.600   0.569 -0.3911  0.1761  0.0887
22338W        W53554  10.127   9.643   2.644  0.0315  0.0234 -0.1232
22339W        W53555  26.158  23.267   2.517 -0.0159 -0.2300 -0.3483
22340W        W53556  15.426  19.988   1.214  0.1366 -0.0253 -0.0016
22341W        W53557  20.475   7.428  10.103 -0.0124  0.2810 -0.0993
22342W        W53558  18.691  14.553   7.164  0.2932 -0.1856 -0.0993
22343W        W53559   6.096  18.045   0.592  0.4405  0.1441 -0.0602
22344W        W53560   3.848   2.504   9.700  0.0718  0.1100 -0.0014
22345W        W53561   3.409  27.325   1.220 -0.3460  0.0312 -0.1677
22346W        W53562   0.595  27.590   8.761  0.2276 -0.1736 -0.0009
22347W        W53563  16.097  10.903   2.323  0.0461  0.0522  0.0304
22348W        W53564  14.461  12.257  10.406 -0.0753 -0.2471 -0.2704
22349W        W53565   4.744  15.354   0.732 -0.1425  0.0140 -0.2176
22350W        W53566   6.056   5.650   9.663  0.1512  0.1682  0.2301
22351W        W53567  14.866  14.374   8.647 -0.0105 -0.0333 -0.0437
22352W        W53568  11.305   1.062   9.058 -0.1679 -0.1499  0.1605
22353W        W53569   6.750  13.749   9.533  0.2107  0.0745  0.0875
22354W        W53570   9.375  27.278  10.496 -0.1659  0.1077 -0.0023
22355W        W53571   8.777  25.983   9.630  0.0892 -0.3027  0.2121
22356W        W53572  20.982  16.322  10.336  0.0144  0.0176  0.1235
22357W        W53573  15.595   6.656   1.586 -0.2621  0.0139  0.2330
22358W        W53574  18.777   5.453   1.618 -0.1984 -0.0807 -0.1906
22359W        W53575   6.082  13.319   7.843 -0.0403  0.0414  0.1411
22360W        W53576  11.771  20.656  10.525  0.1046 -0.2202 -0.2195
22361W        W53577   4.440  24.232   9.886 -0.1563 -0.0450 -0.1320
22362W        W53578   5.739   1.074   3.551 -0.0201  0.0701 -0.0201
22363W        W53579  22.627   2.618   9.710 -0.0315 -0.2598  0.2975
22364W        W53580  21.728  18.961   1.783  0.0257 -0.1131  0.0861
22365W        W53581  25.376  17.828  10.135 -0.1324 -0.2358 -0.1934
22366W        W53582  26.578  19.831   9.005  0.0036  0.2129  0.0005
22367W        W53583  16.597  22.383   0.466  0.0240  0.2397 -0.1544
22368W        W53584  24.665   1.869   0.119  0.2774 -0.4204  0.1257
22369W        W53585  11.227  12.177   9.539  0.1571 -0.0983 -0.0066
22370W        W53586  13.444  25.372   3.060  0.1659  0.0892  0.1333
22371W        W53587  19.540  12.225  10.191  0.1300 -0.1146  0.0802
22372W        W53588   2.737  26.685  10.157 -0.0073  0.1962  0.0610
22373W        W53589  14.877  22.765   7.754  0.2260  0.0574  0.1644
22374W        W53590   7.105  23.172   1.958 -0.0304  0.1716  0.1229
22375W        W53591  10.058  18.070   0.872 -0.0075 -0.4003  0.2162
22376W        W53592  19.743  23.003   8.069  0.0368 -0.2317  0.1669
22377W        W53593   3.471  12.443   7.974 -0.3308  0.0138 -0.0683
22378W        W53594   8.518  14.935   2.418  0.0628 -0.0336 -0.1196
22379W        W53595  16.604  14.809  10.506  0.2492  0.0137 -0.1469
22380W        W53596   5.294  21.622   3.694 -0.0316  0.0687 -0.1262
22381W        W53597   3.690  21.815  10.505  0.4709  0.0775  0.3209
22382W        W53598  26.207  12.107   0.628 -0.1512 -0.3064  0.1881
22383W        W53599  22.820  11.008   9.183  0.2339  0.1830 -0.0851
22384W        W53600  26.182   6.442   1.380  0.1095 -0.1083 -0.0394
22385W        W53601   9.891  11.979   0.131 -0.1613 -0.2198  0.0100
22386W        W53602   0.453   6.117   2.161 -0.3218 -0.0552 -0.0590
22387W        W53603   2.696  23.156   2.038 -0.0471  0.1129  0.1649
22388W        W53604  17.673  12.656   8.477  0.3698 -0.1194  0.1486
22389W        W53605  15.126   8.397  10.420  0.1452 -0.0586  0.1233
22390W        W53606   1.444  20.268   8.318  0.2681  0.3303 -0.3058
22391W        W53607  20.905  24.230   8.911 -0.3159  0.2565  0.1751
22392W        W53608   7.168   9.044   8.794 -0.4113 -0.1072 -0.1157
22393W        W53609   3.153   0.574   1.919 -0.1730  0.0233 -0.0128
22394W        W53610  10.715  22.776   1.870  0.1791 -0.0070  0.0564
22395W        W53611  18.379   3.860   2.467 -0.2425  0.2732  0.2482
22396W        W53612  22.684  12.442  10.301 -0.1924 -0.3143  0.0042
22397W        W53613  25.586   9.953  10.233 -0.2548 -0.0482  0.2188
22398W        W53614   8.444   8.359  10.319 -0.0590  0.1989 -0.1356
22399W        W53615  15.085   5.812   3.373 -0.1637 -0.2490  0.0038
22400W        W53616   8.406  21.284   8.562  0.1006  0.0692 -0.0338
22401W        W53617   0.569  24.338   3.505  0.1574  0.0767  0.3240
22402W        W53618  24.430   3.237   0.658  0.2264  0.1998  0.0089
22403W        W53619  21.646  17.191   8.725  0.0183  0.0304  0.3641
22404W        W53620   6.698  19.416   2.522 -0.1763  0.0719 -0.2533
22405W        W53621  19.616  26.520   9.497  0.1528  0.0041  0.0180
22406W        W53622  23.813  13.857   3.139 -0.0601  0.0357  0.0506
22407W        W53623   6.752  24.268   8.382  0.1332 -0.1797 -0.1073
22408W        W53624   1.858  27.109   9.943  0.2049  0.0458 -0.0765
22409W        W53625   8.287  11.959   8.407 -0.0035 -0.0868 -0.1020
22410W        W53626  19.516  25.684   1.160  0.1438  0.0006  0.4207
22411W        W53627  23.836  19.189   9.536 -0.1861 -0.3371 -0.1053
22412W        W53628  17.572  12.169   1.811  0.0411 -0.0623 -0.1038
22413W        W53629  12.727  16.040   9.772  0.0120  0.0552  0.1894
22414W        W53630  10.544  12.936   7.447 -0.0713 -0.1200  0.0368
22415W        W53631   2.011  26.024   2.890  0.0774  0.5211 -0.0216
22416W        W53632  20.459  24.459   1.910  0.0615  0.1139  0.1421
22417W        W53633  23.624  22.035   2.896 -0.0720 -0.1726 -0.1434
22418W        W53634  16.148  10.386   2.362 -0.0538 -0.3157 -0.1118
22419W        W53635   7.752  26.604   2.633  0.1258  0.1370 -0.2775
22420W        W53636   7.456  12.486   3.041  0.1268 -0.0403  0.0755
22421W        W53637  13.995   8.779   9.805 -0.0456  0.0987 -0.0154
22422W        W53638  10.232  23.105   7.965 -0.0476 -0.1428 -0.0763
22423W        W53639   4.248  20.726   1.696  0.2884 -0.0566  0.1013
22424W        W53640  13.449   1.131   1.054 -0.2440  0.4113  0.0852
22425W        W53641  19.257   3.056   3.608 -0.1692 -0.0156 -0.0632
22426W        W53642   3.646   3.036   9.746  0.1683 -0.1462  0.2600
22427W        W53643  14.816  20.847   8.146  0.2862  0.2299 -0.0931
22428W        W53644  27.188  12.638   2.892  0.2617  0.2053 -0.3495
22429W        W53645  23.531   0.710   9.706 -0.0716  0.0737 -0.0308
22430W        W53646   5.673  23.745   0.843  0.1796 -0.1028  0.0369
22431W        W53647  22.719  25.972   8.493  0.0488  0.0355 -0.2581
22432W        W53648   3.793   4.148   8.197  0.0204 -0.1582  0.2942
22433W        W53649   4.170  18.633   0.205  0.0434 -0.0181 -0.2363
22434W        W53650   9.427  14.573  10.059  0.0542  0.0542 -0.1241
22435W        W53651  19.377   8.770   3.730  0.2054 -0.1230 -0.0172
22436W        W53652   4.807   5.274   8.474  0.0824  0.0421  0.0989
22437W        W53653  14.245   3.188   8.934 -0.1786  0.0899  0.2703
22438W        W53654  12.118   0.516   0.706 -0.0729  0.0364 -0.0527
22439W        W53655  21.991  14.520   0.459  0.0354 -0.1180  0.0675
22440W        W53656  15.906   3.289   7.576  0.0341 -0.2526  0.3903
22441W        W53657  13.341  23.496   8.611  0.0332  0.1183 -0.0653
22442W        W53658   5.380  23.964   9.539  0.0154  0.2606 -0.0962
22443W        W53659   7.758  24.710   2.225 -0.2633  0.2291  0.1627
22444W        W53660   0.352  27.396   1.921  0.1736  0.2063  0.2483
22445W        W53661   5.017  24.715   0.339 -0.1203 -0.3256  0.2464
22446W        W53662  13.185  18.517   1.345  0.1081  0.1591 -0.1055
22447W        W53663  12.906  12.968   9.698 -0.1095 -0.1459 -0.1259
22448W        W53664   7.443  21.178   9.324  0.0421  0.0141  0.2019
22449W        W53665  12.838  17.088   1.515 -0.1325  0.3199  0.2349
22450W        W53666  23.424  10.399   2.604 -0.0284  0.1181 -0.0257
22451W        W53667  20.255  12.984   2.755 -0.1668 -0.2161  0.0333
22452W        W53668  25.944   7.861   9.096 -0.4063  0.0882  0.1507
22453W        W53669  10.336  19.358   1.628 -0.4645  0.1618 -0.0649
22454W        W53670   9.952  20.701   3.372 -0.1683 -0.3900  0.1469
22455W        W53671  16.102  20.862   0.071 -0.1502 -0.2147 -0.2289
22456W        W53672   6.610  14.458   1.404 -0.0571  0.1851  0.2197
22457W        W53673  23.549  12.929   9.205 -0.1499  0.2975 -0.1346
22458W        W53674  12.397  18.671   2.648  0.0039 -0.0868  0.2401
22459W        W53675  14.242  10.184   7.023 -0.3270  0.1464 -0.2201
22460W        W53676   6.447  20.026   0.256  0.1396 -0.0045  0.2831
22461W        W53677  20.713  18.311   9.363  0.0731 -0.0533 -0.0030
22462W        W53678   0.771  15.546   1.597 -0.0745 -0.2249  0.0573
22463W        W53679  12.430  23.630   2.446 -0.0109 -0.1361 -0.0028
22464W        W53680  10.161  27.256   2.843 -0.1167  0.1822 -0.3824
22465W        W53681   1.288   9.108   0.404  0.0062  0.0733 -0.1298
22466W        W53682  19.016  15.782   9.943 -0.0155 -0.0586 -0.0164
22467W        W53683  27.113   8.696   1.660  0.3040  0.4440  0.1511
22468W        W53684  22.031   6.034  10.029  0.1790  0.3206 -0.1628
22469W        W53685  25.977  25.022   2.422 -0.2340  0.0650  0.2084
22470W        W53686   2.211  17.467   3.394 -0.3032  0.3066 -0.1122
22471W        W53687  17.336  20.612   9.016  0.1238  0.1652  0.1971
22472W        W53688  24.092  15.463   7.585  0.0147 -0.1660  0.0319
22473W        W53689  25.196   7.080   1.166 -0.3957  0.0245 -0.1303
22474W        W53690  14.010  13.945   3.452 -0.4038 -0.4069  0.2554
22475W        W53691   8.920   0.222   2.738 -0.1977  0.0670  0.2112
22476W        W53692   0.069   1.736   2.879 -0.0986  0.0545 -0.1446
22477W        W53693  22.908   2.779   0.423  0.1916  0.3111  0.2011
22478W        W53694   1.196  25.111   8.682 -0.4803  0.2639 -0.1726
22479W        W53695   5.755  22.263   1.183  0.1924  0.2557  0.0899
22480W        W53696  11.560  25.294   0.699 -0.0322 -0.3305 -0.3359
22481W        W53697  18.097   8.968   2.316  0.0784  0.4329  0.3888
22482W        W53698  15.451  24.101   1.065 -0.2140  0.1099 -0.1811
22483W        W53699   4.191  22.454   2.872  0.2350 -0.1145 -0.0516
22484W        W53700  13.445  20.674   0.540 -0.1142  0.2863 -0.2461
22485W        W53701   2.434   3.055   0.937 -0.1185 -0.3218  0.0747
22486W        W53702  20.181  15.145   8.737  0.0512 -0.2938  0.1623
22487W        W53703  20.378   3.065   9.851  0.0833 -0.2702 -0.3505
22488W        W53704  26.963  15.468   0.754 -0.3554  0.3056  0.0384
22489W        W53705  16.280  22.001   0.762 -0.0345  0.1803 -0.1757
22490W        W53706  24.201  19.534   7.997 -0.0269 -0.3421 -0.0511
22491W        W53707  25.729  18.103   2.098  0.3152 -0.0480 -0.2140
22492W        W53708   4.169   4.698   9.606  0.1810  0.0663 -0.3770
22493W        W53709   4.651  17.026   2.695 -0.0862  0.0935  0.3312
22494W        W53710   3.770  24.307   1.681  0.1505 -0.1250  0.0229
22495W        W53711   1.058  17.356   0.898  0.1879  0.0698 -0.1003
22496W        W53712  17.438   5.756   1.441 -0.0240  0.0574 -0.2361
22497W        W53713  16.219  18.011   8.907 -0.1570  0.4134  0.3926
22498W        W53714  22.735  10.214  10.093  0.4584 -0.0150  0.1816
22499W        W53715  24.740  16.585   1.801 -0.1232  0.1984  0.0616
22500W        W53716  12.783   6.386   8.763 -0.0648 -0.1506  0.1134
22501W        W53717  22.300  14.043   2.090 -0.2425  0.0814 -0.1038
22502W        W53718   1.207  23.612   3.629 -0.0066  0.3549  0.1530
22503W        W53719  19.157  24.997   8.657 -0.3925 -0.1430 -0.2389
22504W        W53720  19.185   3.819   1.329  0.2634  0.3307  0.0773
22505W        W53721   2.431  27.093   0.337  0.0114  0.1357  0.1382
22506W        W53722  24.203  21.791   1.623  0.1928 -0.0135  0.0228
22507W        W53723  27.251   9.351   2.938 -0.0043  0.0549 -0.4116
22508W        W53724  26.054  18.905   1.260 -0.2790  0.3237 -0.1606
22509W        W53725  21.760  26.192   1.943  0.2341 -0.1213  0.1216
22510W        W53726  17.892  18.640   1.561  0.0219 -0.0247 -0.1962
22511W        W53727  24.490  27.125   1.653 -0.1843 -0.0816  0.1393
22512W        W53728  25.874   6.024   1.265 -0.0144  0.2163  0.3047
22513W        W53729  14.750   2.766   9.238  0.3407  0.3085  0.3130
22514W        W53730  14.414  25.266   1.752 -0.1188 -0.2348 -0.1804
22515W        W53731  14.784  11.994   0.090  0.2492 -0.4454 -0.0817
22516W        W53732  14.406   3.569   9.536  0.2337  0.0180 -0.3912
22517W        W53733  27.057  21.343   1.562  0.0620  0.0418 -0.0847
22518W        W53734   0.002  14.876   1.149 -0.0294 -0.3709 -0.0796
22519W        W53735  25.113   3.139   7.900 -0.0230  0.3382  0.4909
22520W        W53736  25.476  17.122   9.163 -0.0616 -0.2986 -0.2899
22521W        W53737  13.761  21.268   1.100  0.1112 -0.0834  0.1747
22522W        W53738  17.638  10.645   1.456 -0.0432  0.0701 -0.0552
22523W        W53739   7.258  20.443   1.716 -0.3070 -0.2471  0.1313
22524W        W53740   0.101   7.715   0.223  0.1773 -0.1298  0.3754
22525W        W53741  27.591  24.392   0.685  0.0479 -0.0451  0.0400
22526W        W53742   1.523  22.741   3.685  0.1107  0.1721  0.1129
22527W        W53743  15.181  22.245   3.116  0.5194 -0.0722  0.2701
22528W        W53744  17.174   5.839   7.199 -0.3181  0.0072  0.0425
22529W        W53745   7.711  16.464   1.252 -0.0147  0.0054  0.3018
22530W        W53746  16.615   7.156   2.635  0.2475  0.0712 -0.2479
22531W        W53747   1.944   5.794   9.230  0.1727  0.0733  0.1043
22532W        W53748   4.843  26.288   0.060  0.2173 -0.1652 -0.2395
22533W        W53749  10.662  23.382   7.784  0.0464 -0.0049  0.0159
22534W        W53750   3.301  24.141  10.282  0.0782 -0.1059  0.1321
22535W        W53751  20.616  23.798   2.252  0.2549  0.0690 -0.0655
22536W        W53752   1.075   5.904   2.991 -0.1848 -0.0283  0.1328
22537W        W53753  13.324   2.026   9.929 -0.1776  0.0307  0.2463
22538W        W53754  25.694  13.334   1.746  0.1126  0.0410 -0.1027
22539W        W53755   0.864   5.457   1.115  0.0638 -0.2798 -0.1265
22540W        W53756  12.082   4.246   2.963 -0.0620 -0.0656 -0.1457
22541W        W53757  25.111  14.223   3.946  0.1365 -0.0197 -0.0231
22542W        W53758  21.675  22.932   3.375  0.0796 -0.2660  0.3359
22543W        W53759  25.143  22.078   3.351  0.1883  0.0022  0.3321
22544W        W53760  11.172  11.619   5.709 -0.3706 -0.3553  0.0618
22545W        W53761   7.977   5.724   9.280 -0.0038  0.2625  0.1115
22546W        W53762  25.195   6.731   9.203  0.1937  0.1940  0.1345
22547W        W53763   2.088  25.448   9.252 -0.2079  0.3422  0.1657
22548W        W53764   6.909  19.721   1.255 -0.2372  0.1510  0.0106
22549W        W53765  11.270   5.251   3.043 -0.0358 -0.1717  0.1846
22550W        W53766   6.138   0.257   8.929 -0.0317  0.0425 -0.0837
22551W        W53767  11.061  26.787   0.822  0.2676 -0.2295 -0.0602
22552W        W53768  25.579  21.866   3.267  0.0967  0.3299  0.0110
22553W        W53769  17.491  13.626   9.045  0.3449 -0.2477 -0.0684
22554W        W53770   4.163  11.533   9.302  0.1382  0.3244 -0.1551
22555W        W53771   5.892   0.372   0.831  0.3706  0.0611  0.1371
22556W        W53772  24.046   7.028   0.083  0.0444 -0.0187  0.1482
22557W        W53773   4.059   6.179   0.942  0.4022  0.4312 -0.1051
22558W        W53774  19.637  17.899   8.026  0.0197  0.0192 -0.1038
22559W        W53775  18.561  27.474   3.838  0.0624 -0.0265  0.3657
22560W        W53776  27.272  21.019   8.918  0.0646 -0.3399 -0.2140
22561W        W53777  26.540   4.068   0.345 -0.1577  0.0971  0.2279
22562W        W53778  26.593  17.403   1.383 -0.3062 -0.3813 -0.1653
22563W        W53779   3.524  11.696   2.409  0.3398 -0.1223 -0.1690
22564W        W53780  11.171  10.170   1.560 -0.2184 -0.0157  0.0145
22565W        W53781   7.453  26.499   3.595 -0.5106 -0.0246 -0.1599
22566W        W53782   9.172   6.361   3.439 -0.2902  0.1511  0.2771
22567W        W53783  22.908  20.476   0.736  0.0240 -0.4179  0.2123
22568W        W53784  23.662  18.400   9.472  0.0036 -0.1105  0.1715
22569W        W53785  18.762  16.171  10.197  0.0002 -0.0347 -0.1055
22570W        W53786   2.177  11.756   2.520 -0.0087 -0.1725 -0.1542
22571W        W53787   2.734   1.496   1.800  0.0634 -0.0127  0.0347
22572W        W53788  27.569  10.361   8.279 -0.1555 -0.0943 -0.1208
22573W        W53789   0.403  19.914   2.855  0.0348 -0.0854 -0.0112
22574W        W53790  13.608  20.654   9.788 -0.4007 -0.1346 -0.2005
22575W        W53791   4.119  24.930   0.366  0.1974 -0.0586  0.2570
22576W        W53792  25.838  23.479   2.143 -0.2640  0.2373 -0.3088
22577W        W53793  16.403   9.996   1.476 -0.0478  0.0924 -0.1875
22578W        W53794   3.856  22.575   7.798 -0.2416  0.0099 -0.0224
22579W        W53795  21.930   6.444  10.313  0.1040  0.1342 -0.3283
22580W        W53796  15.423   4.476   7.945  0.0424  0.0880 -0.1300
22581W        W53797   4.120  22.655   1.017  0.0590  0.0535  0.0107
22582W        W53798  17.073  13.310   2.946 -0.0317  0.1323  0.2382
22583W        W53799   7.218  23.288   0.013 -0.4077 -0.0080 -0.2503
22584W        W53800   9.759  25.585   0.304 -0.0278 -0.2380 -0.3006
22585W        W53801  18.813   7.867   9.699 -0.0833 -0.0379  0.2572
22586W        W53802  16.171   6.713   2.016 -0.0029  0.0550  0.1852
22587W        W53803   1.408  17.980   0.675  0.3757 -0.1855 -0.0785
22588W        W53804  26.551  25.754   2.143  0.0191  0.0353 -0.1545
22589W        W53805  27.563  25.806   1.012  0.2943  0.0574 -0.1248
22590W        W53806  14.396   6.875   3.005  0.2644  0.1080 -0.0413
22591W        W53807   4.686   5.082   1.231  0.0327 -0.1906  0.1885
22592W        W53808  15.180  13.106   1.598  0.3497  0.3453 -0.2083
22593W        W53809  23.968  25.015   3.040  0.2229 -0.1745 -0.0907
22594W        W53810  14.950   8.154   0.579  0.0404  0.3236 -0.1188
22595W        W53811  26.857  16.617   1.623  0.3171  0.0014  0.0048
22596W        W53812  22.001   9.164   0.374  0.4275 -0.0818  0.0333
22597W        W53813  23.057  22.621   8.160 -0.1222 -0.1560  0.4882
22598W        W53814   4.606  21.256   2.416  0.1303  0.3569 -0.0157
22599W        W53815   3.708   8.875   8.371 -0.1056  0.1076  0.2887
22600W        W53816   8.730  14.922   1.088 -0.3916  0.2385  0.1442
22601W        W53817   7.799  16.675   1.722 -0.0483 -0.1527 -0.2897
22602W        W53818   4.982   7.301   7.931  0.5487  0.2614 -0.0692
22603W        W53819   1.404  24.413  10.071  0.1756  0.0630 -0.3550
22604W        W53820   6.763  12.353   2.392 -0.1523  0.1376 -0.2597
22605W        W53821   9.959   7.265   3.225 -0.0425  0.0371  0.0169
22606W        W53822  15.822   1.761   9.235  0.2221 -0.0354 -0.0820
22607W        W53823   5.495   8.169   1.791  0.1519 -0.0337 -0.1227
22608W        W53824  18.252   8.239   2.105 -0.0507 -0.1452  0.2641
22609W        W53825   1.327   7.736   8.964 -0.0454 -0.1490 -0.1318
22610W        W53826  23.811  14.682   1.056 -0.0916 -0.0892 -0.2070
22611W        W53827  20.251  13.760   1.785  0.0991 -0.0301 -0.0666
22612W        W53828   4.046   2.310  10.212  0.2662 -0.0774 -0.1631
22613W        W53829   7.208   6.836   9.715 -0.0313  0.1373 -0.1680
22614W        W53830  11.921  15.751   7.987 -0.0950  0.0561 -0.3235
22615W        W53831  27.193  15.178   9.427  0.3786 -0.0632  0.1747
22616W        W53832  11.725  14.527   1.388 -0.0968 -0.1905 -0.1479
22617W        W53833  12.719  12.277   8.082  0.2964  0.2467 -0.2269
22618W        W53834   7.486  19.979   0.500 -0.1008 -0.0617 -0.1196
22619W        W53835   1.155   7.742   2.610 -0.1505 -0.0514 -0.0640
22620W        W53836  25.907  25.964   1.786 -0.0139 -0.3294  0.1124
22621W        W53837  18.243  13.555   2.268  0.0296 -0.3884  0.0015
22622W        W53838  16.149   2.113   1.367  0.1550  0.1978  0.1480
22623W        W53839  21.046  10.702   0.595 -0.2808 -0.2644  0.1442
22624W        W53840  26.847  23.935   2.661 -0.1158  0.2332 -0.2827
22625W        W53841  26.417  13.800   8.327 -0.0749  0.0815 -0.2577
22626W        W53842  10.816   3.592   9.683 -0.2582 -0.4326  0.0268
22627W        W53843  23.673  19.928   9.050  0.0383  0.1647  0.1047
22628W        W53844   6.552  10.254   8.008  0.2339  0.0189 -0.0783
22629W        W53845   6.698  27.154   0.435 -0.1777  0.0163  0.0467
22630W        W53846   8.946  25.658   0.728  0.0569 -0.0695  0.0182
22631W        W53847  18.266  20.112   2.536  0.0207 -0.1942  0.0398
22632W        W53848   5.273  20.628   3.668 -0.1578 -0.0587 -0.0490
22633W        W53849  13.460  26.408   1.059  0.2581  0.0238  0.2380
22634W        W53850  25.381   3.929   1.364 -0.0057 -0.3087 -0.0394
22635W        W53851  21.857   3.311   2.478 -0.1059 -0.0306 -0.1078
22636W        W53852  17.668  12.882   7.883  0.1453 -0.0861 -0.0946
22637W        W53853  13.228   3.953   8.870 -0.0865  0.0987  0.1199
22638W        W53854  18.632  12.104   2.467 -0.0972 -0.1304 -0.0826
22639W        W53855  19.813  22.081   0.425  0.1085  0.0832 -0.4086
22640W        W53856  16.009  15.530   1.985 -0.2004  0.1343  0.0280
22641W        W53857   5.453  20.330   7.606  0.2308  0.4374  0.2730
22642W        W53858  26.273  26.387   8.333 -0.0816  0.1938 -0.3007
22643W        W53859  19.690  27.460   2.637 -0.0293  0.3949  0.1511
22644W        W53860  22.567  22.728   1.096 -0.3815  0.0615 -0.1729
22645W        W53861  24.821  18.985   0.772  0.1604  0.2181  0.0359
22646W        W53862  16.320  23.643   8.114  0.0212 -0.2492  0.0330
22647W        W53863  15.723  24.451   1.708  0.4084 -0.0953  0.1389
22648W        W53864  25.889   6.428   1.849  0.1771  0.3393 -0.2320
22649W        W53865  15.663  23.527   8.932 -0.0019 -0.3099 -0.3906
22650W        W53866   1.552   2.881  10.048 -0.0852  0.1595  0.1343
22651W        W53867   2.360  13.464   8.808  0.1028  0.0649 -0.2385
22652W        W53868  14.693   3.347   3.766  0.1617  0.2210 -0.0738
22653W        W53869  15.060   9.530   9.978  0.0615 -0.1183 -0.2132
22654W        W53870  27.511  12.389   8.451 -0.0813 -0.0788  0.4246
22655W        W53871   8.824  18.117   2.311  0.0083  0.3068  0.0441
22656W        W53872   1.779   3.525   9.444  0.0053 -0.0959  0.0549
22657W        W53873  27.406   5.794   2.637  0.1923 -0.0808  0.1552
22658W        W53874  17.933  26.378   7.951  0.0916 -0.1447 -0.0399
22659W        W53875  18.833   5.739   6.821 -0.0045 -0.2800 -0.0287
22660W        W53876  19.517  23.495   2.301 -0.0682  0.0596 -0.0073
22661W        W53877   6.411   9.409   1.476 -0.0117 -0.2658 -0.0335
22662W        W53878  20.365   3.514   1.059 -0.1717  0.0260  0.0201
22663W        W53879   2.917  19.235   0.832  0.0928 -0.2133  0.1568
22664W        W53880  15.573  14.818   2.510 -0.2272  0.0871 -0.1136
22665W        W53881  25.663  10.448   9.343 -0.1977  0.0613  0.0492
22666W        W53882  12.812   2.252   3.953  0.2246 -0.3034 -0.2279
22667W        W53883  15.156  12.305   2.515  0.2870  0.2256  0.3162
22668W        W53884  26.796   1.829   8.764 -0.1906 -0.0867 -0.3724
22669W        W53885  13.211   5.860   9.463  0.2506  0.2278 -0.3666
22670W        W53886  20.406   1.566   8.042  0.2313 -0.2194 -0.1791
22671W        W53887  16.265   3.965   0.115 -0.1248  0.1686 -0.1241
22672W        W53888  27.467  16.496   2.823 -0.2823  0.1195  0.0493
22673W        W53889  17.720  15.512   2.137 -0.0522 -0.2362  0.1534
22674W        W53890  13.504   6.214   9.156 -0.0828 -0.1479  0.1863
22675W        W53891  22.018  12.986   8.139  0.0799  0.4837 -0.2357
22676W        W53892  18.311  12.221   0.309 -0.0567 -0.2440  0.1197
22677W        W53893   1.019  20.988   7.485 -0.1085 -0.0649  0.1146
22678W        W53894  21.445  16.647   8.612 -0.1321 -0.0165 -0.0744
22679W        W53895   2.179  15.405  10.477 -0.1337 -0.0726 -0.3010
22680W        W53896  24.879  26.931   0.502 -0.1060  0.2196 -0.0013
22681W        W53897   7.684  18.976   1.039 -0.2974 -0.0929  0.1232
22682W        W53898   0.674  25.850   1.597  0.0523 -0.0598  0.1654
22683W        W53899  27.241  27.093   7.540 -0.3557 -0.0788  0.1426
22684W        W53900  10.313   1.771   0.174 -0.2083 -0.0516 -0.5450
22685W        W53901  19.098  22.988   9.400  0.1808 -0.0609  0.0882
22686W        W53902   7.724  21.642   0.630  0.0722  0.0641 -0.0530
22687W        W53903  12.377  18.476   8.030  0.1781 -0.1175 -0.1977
22688W        W53904  16.656  25.030  10.447 -0.1203  0.0674  0.1964
22689W        W53905  11.281  16.331   8.347 -0.1551  0.3619 -0.1156
22690W        W53906   2.361   6.309   1.083  0.2964 -0.1358  0.1237
22691W        W53907  16.855  11.035   2.987 -0.1050  0.2880 -0.1567
22692W        W53908   2.529   2.502   9.007  0.2050  0.0315 -0.0840
22693W        W53909  17.351  27.384   7.426 -0.2503  0.1599 -0.0351
22694W        W53910   5.370  22.349   0.909 -0.0610  0.0708  0.1784
22695W        W53911  18.866  18.561   7.866  0.4705  0.1626 -0.0750
22696W        W53912  15.444   1.771   8.224  0.0746  0.0623 -0.4725
22697W        W53913  20.950  25.712   9.978 -0.0783  0.0932 -0.3042
22698W        W53914  27.018  10.454  10.173 -0.0262  0.3038 -0.0539
22699W        W53915  13.816  12.063   0.262  0.5784  0.3842 -0.1067
22700W        W53916  10.915   9.899   0.062  0.0999  0.1762  0.0109
22701W        W53917  20.989  19.941   8.515 -0.1686  0.0510 -0.0236
22702W        W53918  13.242   9.504   8.702 -0.1580  0.2269  0.1485
22703W        W53919  13.020  16.615   0.564  0.2676  0.0051  0.0185
22704W        W53920   5.410  14.992   7.997  0.0751 -0.1212 -0.0668
22705W        W53921   7.270   2.769   8.384 -0.0351 -0.3889  0.2083
22706W        W53922   8.340  19.269   8.661  0.0355  0.1761  0.1133
22707W        W53923   9.374  27.379   9.068  0.1278  0.1765  0.1808
22708W        W53924  11.932  19.693   2.075  0.2087 -0.0647 -0.1335
22709W        W53925  19.299   7.580   7.795 -0.0914 -0.1263 -0.0736
22710W        W53926   1.310  19.539   2.861 -0.0930 -0.0666  0.1908
22711W        W53927   7.615  17.897   9.788 -0.1000  0.2205  0.1096
22712W        W53928  26.443  22.006   1.706  0.1957 -0.0610 -0.2492
22713W        W53929  15.234   8.394   3.176  0.2637  0.3651 -0.0375
22714W        W53930   3.065  18.005   8.348 -0.0478  0.2658 -0.2279
22715W        W53931  10.768   7.699   2.171 -0.1505 -0.1135  0.1713
22716W        W53932  21.488  17.774   7.081 -0.0168 -0.0560  0.1432
22717W        W53933  22.409  25.930  10.123  0.0126  0.3494 -0.2126
22718W        W53934  12.167  21.855   8.709 -0.0734  0.2840  0.1654
22719W        W53935  22.130  26.050   0.267 -0.0639  0.1299  0.0070
22720W        W53936  12.749   7.295   2.971 -0.0672  0.0935  0.3068
22721W        W53937  23.463   8.578   1.601  0.1708 -0.4353 -0.1678
22722W        W53938  26.875  23.114  10.139  0.2895  0.3735  0.5256
22723W        W53939  13.387   7.190   1.631 -0.2533 -0.0081 -0.4812
22724W        W53940  15.744  20.491  10.023 -0.1299  0.0113 -0.1386
22725W        W53941   3.819   0.729   8.551 -0.2488 -0.0536  0.0442
22726W        W53942  24.347   1.153   8.405  0.0520  0.1990  0.1526
22727W        W53943   5.201   9.379   1.385  0.3563  0.2411 -0.1846
22728W        W53944  17.548  22.108   2.012  0.0410 -0.1402 -0.2678
22729W        W53945   8.290  12.532   9.158 -0.0336  0.0309  0.0510
22730W        W53946  22.023  27.272   9.592  0.1385  0.0770 -0.1318
22731W        W53947  11.884  21.801  10.056  0.1573  0.0194  0.2188
22732W        W53948  13.976  15.213   0.974  0.1102  0.0452 -0.0865
22733W        W53949  19.610  20.868   9.493 -0.0935 -0.1699  0.0078
22734W        W53950  22.721  26.019   2.830 -0.1278  0.0204  0.1519
22735W        W53951   2.028  14.989   9.990 -0.1835 -0.0431 -0.3455
22736W        W53952   0.973  13.807   9.446  0.1951  0.1962 -0.1722
22737W        W53953   4.366  11.888   9.683 -0.1707 -0.2164  0.1568
22738W        W53954   2.694   2.648   2.406 -0.2570 -0.0561  0.0643
22739W        W53955  13.082   0.947   9.740  0.1842  0.0418 -0.1544
22740W        W53956   7.270  10.305   3.096  0.3010  0.1803 -0.0954
22741W        W53957  17.002  14.928   3.193  0.2401  0.1555  0.1578
22742W        W53958   2.685  13.677   1.803  0.0952 -0.2648  0.0749
22743W        W53959  22.212   8.241   8.951  0.1559  0.0716 -0.2419
22744W        W53960  23.544  25.157   3.345 -0.0278  0.1757 -0.0330
22745W        W53961  10.165   9.141   2.375 -0.0695 -0.1266 -0.0491
22746W        W53962   2.161  11.563   0.029  0.0812  0.1477 -0.0890
22747W        W53963   2.060  24.676   8.537 -0.1189 -0.0536  0.1614
22748W        W53964  25.899  13.898  10.356 -0.0588 -0.2126  0.3373
22749W        W53965  17.005   2.559   3.176  0.4937  0.1224  0.1941
22750W        W53966   5.023   7.166   0.088  0.0622  0.1599  0.0913
22751W        W53967  13.805  12.715  10.073 -0.2126 -0.1647 -0.0219
22752W        W53968  19.391  19.980  10.318 -0.2701 -0.1201  0.0402
22753W        W53969   2.397  14.801  10.279  0.0019 -0.4499 -0.0493
22754W        W53970  25.973   9.359   0.605 -0.0351 -0.0163  0.0487
22755W        W53971  25.387  13.751   1.804 -0.0948  0.2249 -0.1096
22756W        W53972  12.824  24.674   8.333  0.0357  0.1021  0.1754
22757W        W53973  26.784  13.727   9.066 -0.1298 -0.0432  0.2361
22758W        W53974  25.276  24.988   7.443 -0.2889 -0.0660  0.0100
22759W        W53975  25.757   8.217  10.205  0.0387  0.1215 -0.0657
22760W        W53976  27.180  24.531   0.993 -0.0655 -0.0715  0.1509
22761W        W53977   6.865  16.285   0.707  0.1054  0.3872 -0.1924
22762W        W53978  11.906  26.884   9.926 -0.2163 -0.0602 -0.1368
22763W        W53979  24.389  16.047   2.380  0.0481  0.0036 -0.0040
22764W        W53980  23.434   5.228  10.357  0.0850 -0.0267  0.0415
22765W        W53981   5.986  19.776   8.025 -0.0201  0.0910  0.0892
22766W        W53982  25.799   1.892   0.124  0.0929  0.3042  0.0865
22767W        W53983   8.272  11.268   0.209  0.1875  0.0135  0.3358
22768W        W53984  12.771  11.424   2.639  0.3546 -0.2903  0.0243
22769W        W53985   8.343  22.880   1.311  0.0317  0.0794  0.0938
22770W        W53986   0.661   1.888   8.708  0.2087  0.2129  0.1197
22771W        W53987   3.321  12.345   0.432  0.0025 -0.0750 -0.0576
22772W        W53988   9.456  25.380   0.888  0.2573 -0.3444  0.2380
22773W        W53989   2.488  26.274   2.155  0.1361  0.1789 -0.2842
22774W        W53990  17.194   7.104   9.328 -0.3628 -0.1201 -0.1501
22775W        W53991   4.668   1.895   8.592 -0.2697  0.1895 -0.1610
22776W        W53992  18.474  13.485   8.591 -0.0188 -0.1171 -0.0845
22777W        W53993   6.833   0.960   0.912  0.2496 -0.0208 -0.0552
22778W        W53994   1.606   1.391   1.593 -0.1276  0.1581  0.0587
22779W        W53995  22.786   3.992  10.271 -0.1405 -0.0472  0.1096
22780W        W53996   2.033   1.769   9.625 -0.0015 -0.2142 -0.0193
22781W        W53997  22.496  18.458  10.129 -0.1776  0.0958  0.1395
22782W        W53998   1.865  22.371   8.649  0.0603  0.1548  0.0916
22783W        W53999  26.951  18.365   2.756 -0.0909 -0.0652  0.1669
22784W        W54000  10.585  14.122   8.658  0.1285 -0.0057 -0.1297
22785W        W54001  21.858  11.333  10.037 -0.1915 -0.0248 -0.2366
22786W        W54002   7.781  16.749   3.134  0.1493  0.0707 -0.0570
22787W        W54003   8.666   4.218   8.798  0.3168 -0.1695  0.0098
22788W        W54004   3.660  11.354   3.116  0.0754 -0.2878 -0.1151
22789W        W54005   0.549  11.312   3.609  0.0932  0.3616 -0.0713
22790W        W54006   9.625  15.895   0.371 -0.0476  0.1235 -0.1758
22791W        W54007   1.045  17.386   0.379 -0.2492 -0.2880  0.0069
22792W        W54008   2.820  21.152   3.902 -0.2730  0.1407 -0.3176
22793W        W54009   0.967  25.509   2.182 -0.1425  0.1121  0.1928
22794W        W54010  19.017  24.875   1.049 -0.1818  0.2011  0.0183
22795W        W54011  27.459  12.062   0.148 -0.2728  0.0955 -0.2935
22796W        W54012  26.582   6.272   8.222 -0.2507  0.0473 -0.1900
22797W        W54013   2.382  15.287   8.218  0.2306 -0.2956  0.0173
22798W        W54014   4.188  27.339   9.036 -0.0819 -0.0467 -0.0596
22799W        W54015   8.189  24.178   9.551  0.2458 -0.1660 -0.3452
22800W        W54016   3.037   6.655   8.369 -0.0521 -0.5521  0.0595
22801W        W54017  10.417  24.914   3.955 -0.2642 -0.1000 -0.4412
22802W        W54018   2.192  27.149   8.587 -0.0121  0.0563  0.1452
22803W        W54019   3.981   4.915   8.790  0.0595  0.1010  0.2407
22804W        W54020   0.190   4.821   1.088  0.3626 -0.0897 -0.2673
22805W        W54021  25.312  14.013   8.142 -0.1470 -0.3146 -0.1235
22806W        W54022   2.282   3.417   1.932  0.1238  0.1771  0.1716
22807W        W54023  16.233  14.543   0.132  0.1347  0.0765 -0.1236
22808W        W54024   9.251   8.625   0.386 -0.1726 -0.0325  0.1736
22809W        W54025   8.458  19.858   8.753  0.1705 -0.1939  0.0401
22810W        W54026  10.353   6.068   1.447 -0.0030 -0.0037  0.0788
22811W        W54027  18.343   5.645   9.489  0.3059  0.5468 -0.1445
22812W        W54028   3.043  10.745   1.422  0.1700 -0.2508  0.0578
22813W        W54029   4.345  13.829   9.182 -0.1730 -0.0627 -0.2425
22814W        W54030  27.589   9.615   9.297  0.1061 -0.1104  0.0491
22815W        W54031   2.777   4.343   8.406  0.1724  0.2762 -0.1513
22816W        W54032  13.924   2.502   9.884 -0.0252 -0.1772  0.1380
22817W        W54033   8.332   3.785   2.536  0.1721 -0.0122  0.0862
22818W        W54034  12.394  24.558   0.590 -0.2288  0.4818  0.0562
22819W        W54035   6.611  26.772   8.699  0.2575  0.2055 -0.1260
22820W        W54036  20.853   9.545  10.089 -0.2086  0.1670 -0.2227
22821W        W54037  18.025  24.967   9.846 -0.3800  0.2096  0.2102
22822W        W54038  16.154   7.873   8.354 -0.2730  0.0818  0.0198
22823W        W54039   8.695   6.570   8.871 -0.2201 -0.2487 -0.1418
22824W        W54040   8.286   2.772   7.537  0.3146  0.0140  0.0027
22825W        W54041  20.243   2.518   8.255 -0.0953 -0.0265 -0.2408
22826W        W54042   2.245   4.032   1.044  0.0800  0.1876  0.3167
22827W        W54043   0.678  19.525   2.186  0.0835 -0.1852  0.0710
22828W        W54044  16.424   0.564   2.689  0.1370  0.1498 -0.1218
22829W        W54045   0.888  26.364   3.462  0.2840  0.1720  0.0169
22830W        W54046  14.958  12.921   8.945  0.2610  0.2939 -0.0470
22831W        W54047   1.213   1.683   9.823  0.0673  0.1006  0.1720
22832W        W54048   4.023  21.010   4.076  0.0953 -0.0094  0.1168
22833W        W54049  25.899   3.657   0.064 -0.1152 -0.2467 -0.1998
22834W        W54050   0.455   3.053   1.832 -0.0880 -0.0934 -0.0230
22835W        W54051  13.513   4.041   1.747  0.0651 -0.3377 -0.2312
22836W        W54052   1.946  11.065   9.804  0.0293  0.0235 -0.0324
22837W        W54053   4.897   4.051   3.499  0.1900  0.2978  0.0369
22838W        W54054   3.249  14.236   0.982  0.0186  0.1320 -0.1334
22839W        W54055   8.110  10.901   9.799 -0.0692 -0.0911 -0.3526
22840W        W54056   1.426   9.506   0.962 -0.3162 -0.1674 -0.1291
22841W        W54057   0.605  25.145   0.226  0.1467  0.3898  0.3066
22842W        W54058  22.566   5.441   1.545  0.0157  0.3313  0.1755
22843W        W54059   5.048  25.865   8.644 -0.0271  0.0274 -0.2719
22844W        W54060  26.655   2.076   4.043  0.1701 -0.0581 -0.1421
22845W        W54061  11.262   9.414   2.254 -0.1433 -0.0778  0.3645
22846W        W54062  10.218  21.419   8.612  0.0184 -0.2875  0.0201
22847W        W54063   1.060  26.602  10.322  0.1287 -0.2649  0.2738
22848W        W54064   4.809   7.788   7.067 -0.0558  0.1681  0.0583
22849W        W54065  10.717   5.554   9.900 -0.0290  0.0246 -0.1576
22850W        W54066   6.314   4.534   8.174 -0.0390  0.2561 -0.0205
22851W        W54067  15.058  24.980   0.165 -0.2556 -0.2156  0.3015
22852W        W54068  21.431  22.619   7.561  0.1132  0.0747  0.3406
22853W        W54069   9.036  18.235   0.419 -0.0054  0.0864 -0.3726
22854W        W54070  21.389   2.744   8.868 -0.3826 -0.3272 -0.1480
22855W        W54071  22.326   9.477   9.987  0.0997  0.3784  0.4099
22856W        W54072  13.490   9.689   9.197  0.2366 -0.0624  0.1016
22857W        W54073  21.865  10.545   0.214  0.0536  0.1189  0.0522
22858W        W54074   8.799  12.836   1.072 -0.1324  0.3012 -0.3163
22859W        W54075   4.184  15.721   7.987 -0.0999  0.2123 -0.1089
22860W        W54076  22.837  24.983   8.088 -0.2171  0.0902 -0.1578
22861W        W54077   1.762  22.616   9.723 -0.1728 -0.1538 -0.1423
22862W        W54078   8.361  25.854   8.740 -0.1880 -0.0425  0.0869
22863W        W54079   2.984   7.714   1.809 -0.0217  0.3333  0.2112
22864W        W54080  21.514  18.176   6.730 -0.1318  0.0451 -0.0212
22865W        W54081  16.788   2.070   3.139  0.1231  0.0731 -0.0947
22866W        W54082  10.048  10.554   9.824 -0.1992 -0.2792 -0.1867
22867W        W54083  16.260   2.584   8.436 -0.1002  0.1493  0.3048
22868W        W54084  21.426   1.824   3.742 -0.3447  0.2569 -0.0710
22869W        W54085  22.000   1.946   0.109  0.2911  0.2721 -0.0591
22870W        W54086  23.654  10.098  10.025  0.0523 -0.3061  0.3007
22871W        W54087  26.770   5.189   9.192 -0.1711  0.0220 -0.1004
22872W        W54088  12.626  12.921   8.893  0.3606  0.0608 -0.2058
22873W        W54089   1.628  13.267   0.005 -0.0130 -0.3901 -0.1802
22874W        W54090   0.662  20.694   2.390  0.0490 -0.1189 -0.0919
22875W        W54091  27.358   0.417   1.775 -0.0644  0.1672  0.2147
22876W        W54092   1.528  20.911   2.869 -0.0776  0.0477  0.0274
22877W        W54093  19.762  16.043   8.119  0.0414 -0.1280 -0.2403
22878W        W54094  13.920  15.524   2.423  0.3549 -0.1127  0.1376
22879W        W54095  16.243  12.455   1.508  0.1007  0.1129  0.0990
22880W        W54096  11.726  11.676   2.061  0.1999  0.0507 -0.0362
22881W        W54097  24.161  20.427   2.590 -0.0305 -0.2005  0.0723
22882W        W54098   2.767   4.198   3.458 -0.0450 -0.3253  0.3540
22883W        W54099  26.771   2.236   9.124  0.0077  0.1095  0.0452
22884W        W54100  27.487  26.248  10.240  0.3176 -0.3645  0.0170
22885W        W54101  26.795   8.951   2.328 -0.2622  0.0645 -0.0062
22886W        W54102   7.938   7.473   2.011 -0.1245  0.0926  0.0003
22887W        W54103   7.290   3.530   7.637 -0.4424 -0.0173  0.0829
22888W        W54104  26.453   2.166   9.592  0.0516  0.3818 -0.3248
22889W        W54105   4.794   6.907   9.203 -0.1016 -0.3048  0.0221
22890W        W54106  16.848  11.068  10.024 -0.1555  0.1713  0.1915
22891W        W54107  14.875  23.517   1.332  0.0986 -0.1198 -0.0062
22892W        W54108   4.704  12.477   9.918  0.1882 -0.0799 -0.0260
22893W        W54109  25.983  27.484  10.496 -0.1991  0.2201 -0.2527
22894W        W54110  10.654   0.166   0.174 -0.0494 -0.1964 -0.0892
22895W        W54111  13.138  10.778   7.680  0.0763  0.1381  0.0210
22896W        W54112   5.751  16.292   2.187  0.0299 -0.1268 -0.1605
22897W        W54113   6.088  17.527   7.924  0.1262 -0.0524 -0.2350
22898W        W54114  18.042  22.809   8.332 -0.1684 -0.0140  0.0346
22899W        W54115   7.683  22.231   3.638  0.2001 -0.3700 -0.0177
22900W        W54116  26.821  18.273   9.806 -0.1348 -0.1156 -0.1036
22901W        W54117  11.360  27.071   2.481  0.1051  0.1499 -0.1851
22902W        W54118  21.782  19.916   7.729 -0.1675  0.0708 -0.0991
22903W        W54119  26.854   0.094   0.493 -0.1899  0.0780  0.1402
22904W        W54120  19.675   2.895   0.118  0.2791 -0.0734  0.0466
22905W        W54121  21.113  25.921   2.630 -0.1968 -0.0873 -0.4711
22906W        W54122  23.891   4.167   1.583  0.2277  0.0844 -0.0779
22907W        W54123   6.668  14.512   8.463  0.0158  0.0634  0.0727
22908W        W54124   8.547   1.464   1.561 -0.1921  0.0451  0.1281
22909W        W54125  13.912  23.924   0.182 -0.2680  0.0318 -0.2005
22910W        W54126  13.969  21.465   1.589 -0.2693 -0.0037 -0.1308
22911W        W54127   2.812  25.621   9.160 -0.1948 -0.0070  0.0279
22912W        W54128  20.485  10.786   7.938  0.0683 -0.0846  0.0714
22913W        W54129  17.354   0.535   9.986 -0.3522 -0.0100 -0.1308
22914W        W54130   1.265  22.727   0.962 -0.3173  0.1789 -0.2747
22915W        W54131  23.375  10.241   0.288  0.2854 -0.4465  0.2459
22916W        W54132  27.484  26.471   0.632 -0.0222  0.2345 -0.0074
22917W        W54133   9.654  26.273  10.261  0.2405 -0.2416 -0.4855
22918W        W54134  27.016  22.352   9.241 -0.1386 -0.0408  0.1490
22919W        W54135   0.339  11.649   8.796  0.0988 -0.1996 -0.2833
22920W        W54136   9.887  12.267   7.910 -0.2116  0.2834 -0.1110
22921W        W54137  22.665  14.398   8.858 -0.2095 -0.1857  0.0467
22922W        W54138  12.374  12.134   3.238  0.1982 -0.0063  0.0772
22923W        W54139  24.810   2.507   8.110  0.1343  0.2062  0.1146
22924W        W54140  14.230  27.519   9.157 -0.0391  0.2353  0.2610
22925W        W54141   1.581  22.815   8.495  0.1321  0.1932  0.2489
22926W        W54142  12.659  21.677   2.347  0.1607 -0.0881  0.0678
22927W        W54143   1.837  26.224  10.086 -0.0513  0.2059 -0.0989
22928W        W54144   8.829   7.677   1.709 -0.1565  0.2948 -0.1482
22929W        W54145  21.201  18.260   0.120 -0.0729  0.1868 -0.1199
22930W        W54146  16.219  17.815   0.480 -0.0496  0.0206  0.2394
22931W        W54147   1.544  17.512   0.430  0.2980  0.1439 -0.1544
22932W        W54148   4.371   0.332   2.356  0.1426  0.0746 -0.0775
22933W        W54149  16.461  24.191   2.839 -0.2138 -0.0180 -0.2983
22934W        W54150   0.172   6.803   0.671 -0.2142 -0.1747 -0.1647
22935W        W54151  10.911  19.576   8.496  0.0396 -0.0870 -0.2200
22936W        W54152  26.936   2.383   2.541 -0.0948 -0.0933  0.0773
22937W        W54153  21.135   4.436   1.657 -0.0207 -0.0296  0.2214
22938W        W54154  15.734  16.484   0.701  0.2627 -0.1969  0.2009
22939W        W54155  25.364  10.409  10.052  0.0723  0.4516  0.0202
22940W        W54156   7.736   5.239   2.223 -0.1208  0.0400 -0.1284
22941W        W54157   7.431  20.212   9.695  0.1038  0.0151 -0.0386
22942W        W54158   6.829  11.828   7.361 -0.0038 -0.0062 -0.1691
22943W        W54159  13.537  12.418  10.383 -0.1678  0.3085  0.1578
22944W        W54160  25.336  14.680   8.626 -0.2420  0.0244  0.2473
22945W        W54161   1.174   3.188   9.940 -0.0334 -0.1328  0.1322
22946W        W54162  17.781  19.635   3.428 -0.2730  0.5914  0.4740
22947W        W54163  12.621   9.181   0.397 -0.0162  0.0835 -0.1426
22948W        W54164   4.987  15.826   1.767 -0.0699  0.0140  0.1130
22949W        W54165  10.723   2.354   2.959 -0.0358  0.0577  0.0566
22950W        W54166  19.259  10.169   7.587 -0.0158 -0.2615  0.1341
22951W        W54167   9.337   6.075   0.363  0.0456 -0.1328 -0.0675
22952W        W54168  20.414  26.099   7.701  0.0719  0.0414 -0.1307
22953W        W54169  21.061  19.610   3.733 -0.0624  0.2176  0.0093
22954W        W54170  20.116  22.458   1.275  0.0253 -0.0909  0.3004
22955W        W54171   6.731   6.327   9.688 -0.0142  0.0140  0.1295
22956W        W54172  18.473  16.915   8.067 -0.2306 -0.1128  0.0500
22957W        W54173   7.658  12.208   7.873 -0.3012  0.0906  0.0126
22958W        W54174  18.575   2.254   9.787 -0.1639  0.2660  0.1509
22959W        W54175  10.523   3.897   0.167  0.2332 -0.2646 -0.2946
22960W        W54176  21.757  11.736   0.359  0.1202 -0.2138  0.0869
22961W        W54177  24.174  15.189   1.999  0.2325 -0.3387  0.0302
22962W        W54178  18.903   7.087   0.313  0.0578  0.2140 -0.0710
22963W        W54179   2.059  24.984   2.013  0.0778  0.0372 -0.1166
22964W        W54180  18.994  16.990   3.045  0.1593  0.0127 -0.0244
22965W        W54181   8.710  10.047   8.574 -0.0329 -0.1339 -0.2031
22966W        W54182   9.016  20.321  10.084 -0.1983 -0.1091 -0.1480
22967W        W54183   6.094  12.987  10.065  0.4953  0.0051  0.0522
22968W        W54184   8.092   1.271   1.856 -0.1778 -0.1764 -0.0133
22969W        W54185  11.438  13.128   8.566  0.1129  0.1372 -0.0692
22970W        W54186   8.056   5.828   0.505  0.0316 -0.0909 -0.0185
22971W        W54187  24.565  12.035   7.617  0.3439  0.0013  0.1392
22972W        W54188  10.873   1.782  10.088  0.2383 -0.1865 -0.2160
22973W        W54189   4.803  22.407   9.037  0.0288  0.1387 -0.2291
22974W        W54190   6.981   0.274  10.079 -0.2544 -0.3026  0.0135
22975W        W54191   0.656  22.397   3.679 -0.2488  0.1802  0.2396
22976W        W54192   0.828   2.177   0.968 -0.1816 -0.0843 -0.2307
22977W        W54193  14.608  10.565   1.327 -0.1208  0.1290  0.2897
22978W        W54194  25.244   4.868   1.138  0.0967 -0.1232  0.0767
22979W        W54195   1.458  18.829   3.550 -0.0348  0.0712  0.0782
22980W        W54196  23.405  24.376   1.557 -0.1039  0.1441  0.3646
22981W        W54197  12.055   9.821   1.419 -0.0049  0.1688  0.0872
22982W        W54198  12.704   7.307   0.929  0.0508  0.0951  0.1954
22983W        W54199   6.720  20.300   3.151 -0.0114 -0.2509 -0.0060
22984W        W54200  14.458  17.112   7.606 -0.3801  0.0363  0.1965
22985W        W54201  11.931   2.105   8.973  0.0469  0.2757  0.1135
22986W        W54202  27.517   8.605   2.681 -0.2051  0.1909  0.2028
22987W        W54203  10.507  19.631   7.178 -0.0832  0.1529 -0.1338
22988W        W54204  25.785   6.311   3.743 -0.1112  0.2029  0.2275
22989W        W54205   9.207  26.546   2.655 -0.1220 -0.0764 -0.0920
22990W        W54206  12.056   0.345   3.733 -0.0116 -0.1454  0.0285
22991W        W54207  26.356  16.434   8.028 -0.0831 -0.1459 -0.1151
22992W        W54208  15.081  22.129  10.114 -0.1015 -0.2605  0.0055
22993W        W54209  12.281   2.943   1.467  0.0101 -0.0999  0.3243
22994W        W54210  27.531   1.983   0.363 -0.3931  0.0987  0.0148
22995W        W54211   5.284  25.112   1.469 -0.0919  0.4168  0.3539
22996W        W54212  20.170  24.317   3.192  0.2650 -0.0486  0.1766
22997W        W54213  19.422  26.588   1.854 -0.0037 -0.0917  0.0457
22998W        W54214  10.073  22.401   8.582 -0.0966 -0.0805  0.0215
22999W        W54215  20.149   9.431   0.558 -0.1770 -0.1595 -0.0552
23000W        W54216   1.697  10.024   0.504  0.1493 -0.0709  0.0201
23001W        W54217   5.905   4.092   1.916 -0.2172  0.1719 -0.3219
23002W        W54218   9.611   3.688   9.295 -0.0926  0.3263  0.0704
23003W        W54219   3.591  26.125  10.331  0.0331  0.2332  0.1548
23004W        W54220  13.728   7.506   3.140  0.0017  0.0371 -0.1655
23005W        W54221  26.018   7.278   0.609 -0.2536  0.2019 -0.1882
23006W        W54222  13.178   2.537   1.427  0.0771  0.1426  0.0012
23007W        W54223  18.176  14.786   9.815 -0.0051  0.0930 -0.0138
23008W        W54224   9.296   0.293   0.036  0.2633 -0.2781  0.0577
23009W        W54225   2.495  18.508   2.309  0.4300 -0.1186  0.0681
23010W        W54226   8.265   9.062   7.852  0.1915 -0.0093  0.0981
23011W        W54227  25.084  14.041   1.980 -0.2796  0.0532 -0.0098
23012W        W54228  17.732   6.614  10.264 -0.0437  0.0492  0.2846
23013W        W54229  19.846  15.280   9.117  0.0668  0.1277 -0.2282
23014W        W54230   3.712  13.553   7.807  0.3048 -0.1629  0.0004
23015W        W54231   5.536   4.420   1.676  0.0799 -0.0386 -0.2097
23016W        W54232  10.504   7.623   8.163 -0.1601  0.0201  0.0195
23017W        W54233  27.155   3.892   9.392  0.0443  0.1250  0.0960
23018W        W54234  11.907   8.732   3.340  0.2589 -0.1699 -0.0880
23019W        W54235  25.907  22.879   2.877  0.2234 -0.1718  0.1268
23020W        W54236   6.702  15.787   9.148  0.1475 -0.1747  0.0014
23021W        W54237  18.501  24.096   8.354 -0.2911  0.0105  0.0885
23022W        W54238  17.459  12.274   8.232 -0.1686 -0.1527  0.2196
23023W        W54239  11.501  24.420   9.461  0.0312 -0.1455  0.2020
23024W        W54240  13.905   1.681   3.061  0.1375  0.1882 -0.2943
23025W        W54241  12.549   8.118   2.757  0.1790  0.0091 -0.1211
23026W        W54242  10.239  23.339   1.580 -0.1412  0.0230  0.3677
23027W        W54243  27.027  14.120   3.105 -0.2902 -0.1148  0.1559
23028W        W54244   4.817   0.447   8.382  0.1890  0.0391  0.2918
23029W        W54245   6.183  11.241   0.341  0.0457 -0.1918 -0.0470
23030W        W54246  17.503   5.382   1.782  0.2201 -0.1785 -0.1695
23031W        W54247  26.087  26.441  10.272  0.0954  0.0557  0.1103
23032W        W54248  21.261  13.820   9.371  0.1376 -0.0158  0.0906
23033W        W54249  13.128   8.960  10.210 -0.0421  0.1439  0.0124
23034W        W54250   7.062  12.110   3.354  0.0696  0.0148 -0.1613
23035W        W54251  23.200  13.772   9.509 -0.0680  0.2216 -0.0499
23036W        W54252  21.258  20.984   3.341 -0.0458  0.2325 -0.1851
23037W        W54253  17.888   2.985   9.903  0.1421 -0.0724  0.1726
23038W        W54254   9.385  12.918   9.012  0.0877 -0.3271  0.2564
23039W        W54255  16.159  22.592   0.478 -0.1324 -0.1311  0.0761
23040W        W54256   6.804  25.162   8.002 -0.1828 -0.2199  0.3348
23041W        W54257  13.239  18.065   0.107 -0.0924  0.1088  0.1866
23042W        W54258  22.889   7.603   8.244 -0.0547 -0.0355  0.1126
23043W        W54259   5.216  15.009   2.276 -0.0600 -0.0959  0.3039
23044W        W54260  18.129  23.568   8.861 -0.1629  0.1937  0.1299
23045W        W54261   5.118  13.928   9.600 -0.1999  0.3369  0.0390
23046W        W54262  14.016  23.472   2.743  0.1310  0.0557  0.4101
23047W        W54263  24.860  20.327   0.934 -0.1889 -0.1471  0.2340
23048W        W54264  23.460  22.624   9.032  0.0507  0.2531 -0.3753
23049W        W54265   6.811   9.968   8.835 -0.0633 -0.1184  0.2042
23050W        W54266  11.692  10.752   9.197 -0.3564  0.0220 -0.1819
23051W        W54267  21.519   9.334   1.250  0.1985  0.0708 -0.2397
23052W        W54268  22.827   9.027   9.494  0.2544  0.0057  0.1061
23053W        W54269  18.225  22.317   3.501 -0.0273  0.1372  0.2771
23054W        W54270  18.073  22.714   2.026 -0.0786 -0.0792 -0.0388
23055W        W54271  18.399  17.784  10.314 -0.2674  0.2872 -0.0304
23056W        W54272  23.548   8.067   2.958  0.0903  0.1435 -0.3251
23057W        W54273   2.811  15.889   2.667  0.0958  0.3324 -0.1716
23058W        W54274   1.043  23.555   9.749  0.0992 -0.2804 -0.2719
23059W        W54275  26.360  18.815   9.992  0.1269  0.0488  0.2572
23060W        W54276  26.566  25.213   8.463 -0.1347  0.1841 -0.0284
23061W        W54277  14.310  18.717   2.461  0.1821  0.1354 -0.0518
23062W        W54278  19.639   1.660   0.470  0.1538 -0.1015 -0.1236
23063W        W54279  27.239   2.703   0.789 -0.0447 -0.0198  0.0685
23064W        W54280  13.180  13.701   8.417  0.1670 -0.3022  0.0294
23065W        W54281  17.341   3.539   2.135 -0.0395 -0.2102  0.1959
23066W        W54282  17.507   4.351   8.230  0.5559  0.3310  0.0269
23067W        W54283  27.397   0.002   8.244  0.2862  0.0790 -0.2037
23068W        W54284  26.177  12.594   0.799 -0.1296 -0.3310  0.0473
23069W        W54285  18.126   3.187   8.650  0.1031  0.0898 -0.1598
23070W        W54286  12.836   0.203   3.011 -0.1964 -0.0611  0.1630
23071W        W54287  19.333  19.843   1.746  0.0240 -0.1414 -0.2713
23072W        W54288  17.704  25.014   8.444  0.0547 -0.1586  0.0322
23073W        W54289   2.430  20.562   2.591  0.1513 -0.2661  0.0727
23074W        W54290   9.296  13.393   2.793  0.5908  0.2623  0.2459
23075W        W54291   6.736  17.832   2.729 -0.2133  0.1216 -0.0147
23076W        W54292  11.814  13.047   7.689  0.2918  0.2390 -0.1906
23077W        W54293  23.833  14.242  10.389 -0.2911 -0.1020 -0.1593
23078W        W54294  18.797  22.548   2.520  0.1850  0.0951  0.0586
23079W        W54295  21.782  24.947   2.808  0.0352 -0.3185  0.3189
23080W        W54296  21.829   8.764   0.647  0.0362  0.0293 -0.0333
23081W        W54297  10.839  23.080  10.252 -0.0321  0.1354  0.0761
23082W        W54298  24.753  16.913   0.991 -0.1150  0.0092  0.0148
23083W        W54299   2.630   9.967   0.535 -0.0521 -0.0726  0.0524
23084W        W54300  27.200  21.976   2.823  0.2503 -0.0242  0.1736
23085W        W54301   3.264   4.162   0.363 -0.1994 -0.0780 -0.2448
23086W        W54302   4.627  26.076   2.666  0.0047 -0.0667 -0.2847
23087W        W54303   7.591   7.916   0.607 -0.2092 -0.3179  0.0007
23088W        W54304   8.519   2.511   2.550 -0.0903 -0.0701  0.2103
23089W        W54305   3.714  26.329   8.828  0.0405  0.0782 -0.1806
23090W        W54306  18.728   3.680   1.580  0.2292  0.0823 -0.0912
23091W        W54307   7.661  22.359   3.162 -0.1216  0.1271 -0.0841
23092W        W54308   4.980   6.749   9.815 -0.0103 -0.0846 -0.0015
23093W        W54309  25.281  13.492   1.418 -0.0280  0.2565  0.2064
23094W        W54310   4.959  19.715   3.837 -0.0655 -0.0966  0.0127
23095W        W54311  18.715   4.301   9.278 -0.0519  0.3229  0.2637
23096W        W54312  19.665   4.416   3.359 -0.0931  0.1432  0.0358
23097W        W54313  11.149   6.458   1.869 -0.0475 -0.2648 -0.2092
23098W        W54314   3.676   7.905   0.703 -0.1735  0.4284 -0.1762
23099W        W54315  20.687  10.165   0.024  0.4454  0.0441  0.1953
23100W        W54316   9.212   5.949  10.051 -0.1407 -0.1510  0.1517
23101W        W54317  18.249  17.020   9.547  0.1525 -0.0352  0.0592
23102W        W54318  17.132  25.791   2.494 -0.0637  0.0408 -0.2997
23103W        W54319   3.353  11.588   7.552  0.0272  0.1433  0.1819
23104W        W54320  11.046  24.210   9.239  0.3047  0.1245 -0.0997
23105W        W54321   5.259  12.176   3.471  0.1967 -0.2651 -0.0813
23106W        W54322  12.349  25.054   1.490  0.3612 -0.1721  0.0073
23107W        W54323   0.415   0.024   1.488 -0.2501  0.0793  0.1237
23108W        W54324  12.402  24.323   9.627 -0.1186  0.3111  0.0571
23109W        W54325  18.794   4.928   7.394 -0.1917 -0.1146  0.0178
23110W        W54326  25.631   1.920   9.759 -0.3176 -0.0404 -0.0365
23111W        W54327  26.709  24.192   8.735 -0.0061 -0.0035  0.2030
23112W        W54328   7.790  21.902   8.299  0.1057  0.1046 -0.0089
23113W        W54329   6.854   2.892   8.173 -0.2018 -0.1954 -0.0035
23114W        W54330   6.806  15.411   0.957 -0.1203  0.0698 -0.0835
23115W        W54331  25.785  16.381   9.075 -0.1089 -0.0938 -0.0074
23116W        W54332  14.963  19.786   1.475 -0.0332 -0.0877 -0.1637
23117W        W54333  19.050  22.216   0.949  0.2908 -0.1242  0.0331
23118W        W54334  10.211  20.580   8.203 -0.1039  0.2502 -0.1150
23119W        W54335  14.564  24.045   1.196 -0.1443  0.2124  0.2133
23120W        W54336   6.584  24.471   3.094 -0.1750 -0.1569 -0.1624
23121W        W54337   1.646  16.486   7.669 -0.1245 -0.1534  0.1403
23122W        W54338  15.376  13.036   0.223 -0.2456  0.0265 -0.2783
23123W        W54339   0.956  10.325   7.604  0.0552 -0.2330 -0.0220
23124W        W54340  13.149   4.583   0.909 -0.1814  0.3801  0.0542
23125W        W54341   4.269  14.223   9.476 -0.0184  0.0135 -0.0209
23126W        W54342  13.456   5.043   0.904  0.1259  0.0217 -0.2479
23127W        W54343   3.053  12.690   0.763  0.2664  0.0112  0.4522
23128W        W54344  18.063  17.706   8.984  0.2959 -0.1134  0.0163
23129W        W54345  12.508  15.245   9.562  0.1303  0.2035 -0.2303
23130W        W54346   0.622  25.677   9.418 -0.2021 -0.3009  0.2457
23131W        W54347  26.138   7.618   8.169  0.0911  0.1235  0.2340
23132W        W54348  14.375  17.204   9.191 -0.0237  0.1474  0.0002
23133W        W54349   5.437   8.648   8.266  0.3045 -0.0327 -0.0303
23134W        W54350   5.071  27.324   2.175 -0.2972 -0.3743  0.0959
23135W        W54351  22.666   0.449   1.378  0.1272  0.1851 -0.1456
23136W        W54352  23.590  23.460   1.069 -0.2443  0.2155  0.0985
23137W        W54353   2.967  18.151   7.373 -0.0925 -0.1550 -0.1693
23138W        W54354  20.924  13.060   2.666  0.1135 -0.1867 -0.0734
23139W        W54355   2.453  26.125   2.651  0.0132  0.0313  0.2407
23140W        W54356   1.861  14.061   9.917 -0.2950  0.1886  0.2239
23141W        W54357  22.550   7.072   2.582  0.2303  0.0577  0.0104
23142W        W54358   1.168  10.371   2.434 -0.1310  0.0658  0.1218
23143W        W54359   9.550   0.700   9.377  0.0179 -0.0257 -0.0118
23144W        W54360   5.636  12.748   0.711  0.1342 -0.3706 -0.0774
23145W        W54361  26.867  10.871  10.389  0.2762  0.2662  0.0620
23146W        W54362  22.059  15.214   9.225  0.1026  0.3729  0.0110
23147W        W54363  21.192  20.218   2.300 -0.2957 -0.0955  0.2292
23148W        W54364  11.730  13.731   1.613  0.4028 -0.2194 -0.4039
23149W        W54365  19.160  26.967   2.002  0.0638 -0.1404  0.1655
23150W        W54366  15.233   7.653   1.241 -0.0146 -0.5162  0.1329
23151W        W54367  20.600  20.124   9.954  0.2255 -0.2028 -0.1796
23152W        W54368  12.867   0.457   8.440  0.3109 -0.0123 -0.2538
23153W        W54369   2.625  20.538   0.546  0.3806 -0.3678  0.1605
23154W        W54370  21.913  26.140   8.887 -0.1455  0.0641  0.0729
23155W        W54371  12.437  25.778   2.372  0.2161 -0.0023  0.2713
23156W        W54372  25.230  23.411   7.842  0.2006 -0.0705  0.2115
23157W        W54373  26.339  26.023   2.661  0.1682 -0.0701  0.0288
23158W        W54374  20.272  13.715   9.850 -0.3368  0.0978 -0.1220
23159W        W54375   8.972   2.467   8.391  0.2496  0.1486  0.0187
23160W        W54376  21.129   9.367   3.249 -0.0608 -0.0563 -0.0846
23161W        W54377   3.869  26.424   3.137  0.0034  0.0129  0.3094
23162W        W54378  22.135  14.746   8.502 -0.0254 -0.1571 -0.0011
23163W        W54379  22.142  20.581   9.287 -0.0355 -0.0008 -0.1997
23164W        W54380  12.390  21.941   3.082  0.1121  0.1912  0.0249
23165W        W54381  15.071  19.623   8.375  0.1275 -0.0537  0.1691
23166W        W54382  21.790  20.969   9.126  0.1892 -0.0352  0.0416
23167W        W54383   8.717  19.958   9.952 -0.0222 -0.0095 -0.1591
23168W        W54384   6.014  24.100   4.230  0.0288 -0.1398  0.0193
23169W        W54385  13.807  21.327   8.724  0.0576 -0.0799 -0.0988
23170W        W54386  25.949  27.363   2.882 -0.0296  0.1018  0.3445
23171W        W54387   1.843   7.316   1.828  0.0313 -0.3550 -0.0688
23172W        W54388  26.515   6.483   2.881  0.1281 -0.1687  0.0811
23173W        W54389  23.328  15.522   7.878 -0.0255 -0.0121  0.2195
23174W        W54390  14.467  21.942   8.814 -0.1893  0.1815  0.0096
23175W        W54391  15.632  14.250   9.582  0.0429 -0.0487  0.0513
23176W        W54392  23.548  19.584   9.934 -0.0156  0.0902  0.0570
23177W        W54393   7.371  16.693   2.054  0.2227  0.1292  0.2589
23178W        W54394  16.613  25.586   0.041  0.2958  0.2121  0.1331
23179W        W54395   1.117   3.720   8.958  0.1383 -0.0603  0.1494
23180W        W54396  24.977  21.230   2.658  0.3641 -0.0271 -0.0465
23181W        W54397  26.406  21.363   8.629  0.1943  0.0449 -0.3274
23182W        W54398   6.680   0.856   2.032  0.1423  0.0336 -0.1004
23183W        W54399  24.815   8.001   9.956  0.3372 -0.1778 -0.0010
23184W        W54400  13.610  27.269   9.920 -0.1314  0.0106 -0.0150
23185W        W54401  12.057  23.951   9.644  0.0288  0.1968 -0.2087
23186W        W54402   0.762  10.210   2.778 -0.0676  0.0780 -0.1035
23187W        W54403   2.998  26.979   8.513  0.1777  0.0606  0.0765
23188W        W54404  17.839   0.591   3.263 -0.1758 -0.1841  0.0846
23189W        W54405  20.145  15.728   1.155 -0.0306  0.0360  0.0852
23190W        W54406  10.697   1.731   2.892  0.0660  0.1392  0.0282
23191W        W54407   7.906  17.864  10.443  0.1591  0.0462 -0.0499
23192W        W54408   6.099  20.254   1.310 -0.1443  0.0543  0.0914
23193W        W54409   4.065  11.621   0.857  0.0577 -0.3446  0.1601
23194W        W54410  11.359   1.367   2.913 -0.0421  0.0641 -0.1284
23195W        W54411  19.738  11.331   7.589 -0.2577 -0.0762 -0.4062
23196W        W54412  26.674  11.510   8.684 -0.2844  0.2295 -0.0601
23197W        W54413  24.384   7.102   3.397  0.0935 -0.0714 -0.0009
23198W        W54414  22.547   0.232   7.864  0.1031  0.1753 -0.0111
23199W        W54415  15.127  17.625   0.961  0.1219 -0.2520  0.0276
23200W        W54416  27.492  10.175   9.502 -0.2288  0.3703  0.0414
23201W        W54417  23.506  21.182   8.584 -0.5717  0.0387 -0.1507
23202W        W54418   7.049   6.030  10.164 -0.2798  0.1182 -0.0908
23203W        W54419  27.293   4.659   0.842  0.0657  0.0406  0.1035
23204W        W54420  14.720  18.313   9.955 -0.0098 -0.1318  0.1470
23205W        W54421  14.701  26.455   0.421 -0.0009 -0.2622  0.0236
23206W        W54422   7.774  14.307   2.572 -0.1431 -0.0859  0.0352
23207W        W54423  22.534  25.643   1.915 -0.0265  0.0998 -0.1038
23208W        W54424  16.900   4.210   2.739  0.0083 -0.1830  0.1191
23209W        W54425  23.095  21.777   8.275  0.0720  0.0287  0.1537
23210W        W54426   7.829  24.092   9.851 -0.1770 -0.1661 -0.2800
23211W        W54427  12.407  22.749   9.776 -0.3371 -0.1469 -0.1380
23212W        W54428   3.988   0.981   1.817  0.1106 -0.1927 -0.0009
23213W        W54429   5.296  21.236   8.275 -0.0664 -0.1139 -0.0086
23214W        W54430  16.113   8.024   9.858 -0.1110  0.1105 -0.1125
23215W        W54431   5.371   8.847  10.190  0.0941  0.2462  0.3779
23216W        W54432   0.200  23.662   1.202 -0.0283 -0.0060  0.2437
23217W        W54433  13.645   3.498   0.521 -0.2170 -0.0847 -0.1178
23218W        W54434   0.097   4.464   7.751 -0.0692  0.0754 -0.0036
23219W        W54435   9.783  12.215   3.000 -0.0399  0.3786  0.3493
23220W        W54436  24.643  14.904   8.004  0.2113  0.0459  0.0343
23221W        W54437  24.081  10.374   1.383 -0.0025 -0.1537 -0.0720
23222W        W54438  10.793  10.083   8.765  0.2292 -0.1568 -0.2753
23223W        W54439  15.402  11.691   8.948  0.2991  0.0125 -0.0386
23224W        W54440   6.621  16.139   9.541 -0.1575 -0.0159 -0.0931
23225W        W54441   2.922   4.495   1.624 -0.0769  0.1221 -0.2198
23226W        W54442  26.900   2.959   1.034  0.0121  0.2297  0.0631
23227W        W54443  12.352  26.007   1.689 -0.0842  0.0257 -0.0944
23228W        W54444   4.635  24.029   1.451  0.0053 -0.0084 -0.1915
23229W        W54445  10.022   6.365   8.282 -0.1675 -0.1111  0.1269
23230W        W54446  10.812  19.138   1.397  0.1624  0.1512  0.3580
23231W        W54447  15.370   4.926  10.445  0.0967  0.1891  0.0693
23232W        W54448  19.629  23.634   8.770 -0.2712 -0.0485  0.0132
23233W        W54449  11.022  25.194   3.204  0.6918 -0.0641 -0.1621
23234W        W54450   3.267  21.401  10.252 -0.0525 -0.1614  0.1830
23235W        W54451  15.484  22.386   7.079  0.1458 -0.0177  0.0270
23236W        W54452  27.609   9.787   9.763  0.3219  0.0212  0.0387
23237W        W54453  13.600  18.915   0.042 -0.0391  0.1043 -0.1332
23238W        W54454  19.196  21.557   8.820 -0.1658  0.1940  0.0557
23239W        W54455  11.333  10.993   2.517  0.0280  0.0530 -0.3137
23240W        W54456  14.696   3.398   1.528 -0.2925  0.3558 -0.0824
23241W        W54457  13.653   8.175   1.545  0.1456  0.2390  0.0514
23242W        W54458  14.275  13.407   0.501 -0.2494 -0.0362  0.0777
23243W        W54459   9.918  23.182   7.447 -0.3904  0.2164 -0.3995
23244W        W54460  13.854   3.290   9.306 -0.1614  0.0289 -0.2067
23245W        W54461  25.079   3.133   9.153  0.1230  0.2261  0.0013
23246W        W54462  18.882  16.538   1.812 -0.0880 -0.0760  0.0592
23247W        W54463  22.280  15.202   8.466 -0.2710  0.0235  0.0192
23248W        W54464  24.309  15.652   8.538  0.1122  0.1511 -0.1681
23249W        W54465  15.229   3.222   9.376 -0.0932  0.2443  0.0884
23250W        W54466  20.649   9.307   3.503  0.0211 -0.0528 -0.0030
23251W        W54467  18.613  15.530   0.601 -0.0582 -0.3483  0.0445
23252W        W54468   1.691  14.722   8.610  0.2449 -0.0584  0.0619
23253W        W54469   3.947   7.916   2.023 -0.1715 -0.0603 -0.0584
23254W        W54470  18.505  16.908   2.295  0.1567  0.1883 -0.3580
23255W        W54471  27.441  17.991   0.950 -0.1232 -0.2905 -0.2807
23256W        W54472   9.750  11.614   9.083 -0.2378 -0.0961 -0.0114
23257W        W54473  23.535  21.539   2.825  0.1846 -0.1060  0.3868
23258W        W54474   4.415   8.393   2.483 -0.0248 -0.1088  0.2325
23259W        W54475  15.202  24.208   8.243  0.2744  0.2224 -0.1204
23260W        W54476  21.342  15.845   2.824 -0.1988  0.2801  0.0868
23261W        W54477  21.611  17.980   2.438  0.1003  0.0881  0.0101
23262W        W54478   5.011   8.706   9.541  0.1908  0.1306  0.2420
23263W        W54479   7.644   6.436   0.843 -0.0535  0.1719  0.1669
23264W        W54480  23.340   1.999   9.417  0.0467  0.0040 -0.3530
23265W        W54481   7.776   3.139   0.399 -0.2251  0.0645 -0.0476
23266W        W54482  13.227  17.244   8.808 -0.3374 -0.1162  0.1778
23267W        W54483  22.833   1.444   8.428 -0.0238 -0.1667 -0.6288
23268W        W54484  23.240  24.713   1.023 -0.3689 -0.1135 -0.2256
23269W        W54485   9.234   6.114   2.766  0.0215 -0.0455  0.1903
23270W        W54486   8.960   3.166   8.879  0.1605  0.0483  0.0540
23271W        W54487  14.615  22.591   1.719  0.0443  0.1189 -0.0375
23272W        W54488   4.638  14.876   2.913 -0.1400 -0.1056  0.0764
23273W        W54489  10.582  16.111   0.201  0.2379  0.2595 -0.0076
23274W        W54490  12.879  24.280  10.414 -0.0981 -0.0679  0.0525
23275W        W54491   3.714  16.290   8.494  0.5073  0.1056 -0.0227
23276W        W54492   7.272  19.119   0.673  0.1866  0.0640  0.0395
23277W        W54493  13.885   5.438   3.689  0.0006  0.2985  0.0289
23278W        W54494  26.268  24.324   2.243 -0.0177  0.0228  0.1421
23279W        W54495  22.899  19.219   1.070  0.3513 -0.2490  0.1521
23280W        W54496  13.348   5.211   2.720 -0.0360  0.0418 -0.0323
23281W        W54497  20.381  16.572   0.895  0.0667  0.0323 -0.3326
23282W        W54498   2.462   3.339   9.263 -0.1113 -0.2808 -0.0032
23283W        W54499   7.447   5.175   1.645 -0.4204 -0.1236 -0.0416
23284W        W54500   4.823  23.507   1.159  0.1026 -0.0059 -0.2162
23285W        W54501  24.853  18.683   8.876 -0.1194  0.0315 -0.2978
23286W        W54502   1.904   7.913   3.203 -0.1698  0.0429 -0.2581
23287W        W54503   2.829  21.836   1.849 -0.0894 -0.0786 -0.1324
23288W        W54504  11.734   9.741   8.985  0.0093 -0.0395  0.1652
23289W        W54505  27.300  15.418   1.574  0.0995  0.2088 -0.0842
23290W        W54506  23.873  22.746   0.750  0.0568  0.0627 -0.1207
23291W        W54507  18.144  23.099   8.758  0.0266  0.2273 -0.3792
23292W        W54508   5.999  13.925   0.617 -0.0337 -0.0102 -0.3961
23293W        W54509   3.694   9.116   1.018  0.0122  0.2172  0.3549
23294W        W54510   8.578  15.889   2.479  0.1819 -0.2519  0.2565
23295W        W54511  15.025   5.792  10.305  0.3353 -0.0152  0.1233
23296W        W54512  12.194   9.016   2.443 -0.0030 -0.0197 -0.0260
23297W        W54513  13.949  10.007   9.705  0.3468 -0.0805 -0.0479
23298W        W54514  13.072  14.406   1.621 -0.0745 -0.0073  0.1895
23299W        W54515   1.733  24.969   1.166  0.1429 -0.1287 -0.1201
23300W        W54516  15.091   1.096   9.260 -0.1990  0.2868  0.1453
23301W        W54517   1.965   1.910   8.617 -0.1493  0.0161  0.1332
23302W        W54518  11.705   8.309   3.197  0.0917  0.3914  0.1655
23303W        W54519  15.141  26.046   2.658 -0.1319 -0.1151 -0.1130
23304W        W54520  22.216  19.206   1.104 -0.1073 -0.1510  0.0096
23305W        W54521   6.383   3.524   1.545  0.0427 -0.1715  0.0105
23306W        W54522   0.599   6.802   8.008  0.3350  0.0756 -0.2558
23307W        W54523  12.555  11.527   8.556  0.0657 -0.1118  0.0770
23308W        W54524  27.063  24.877   9.483 -0.2174 -0.3239 -0.0040
23309W        W54525  12.668  22.618   3.978  0.3305 -0.3806 -0.0468
23310W        W54526  18.319  18.943   0.419  0.1932 -0.0703  0.0699
23311W        W54527  25.612  19.414   2.668  0.0671  0.0783 -0.0217
23312W        W54528  16.986   3.626   7.574  0.1431 -0.0215 -0.3240
23313W        W54529  13.496   3.019   3.569  0.0742  0.2708  0.1104
23314W        W54530   5.554  27.594  10.076  0.0904  0.1048  0.1131
23315W        W54531  23.390  22.774  10.029  0.2411 -0.0134 -0.1137
23316W        W54532  13.245   3.612   1.453  0.2470 -0.0550  0.1971
23317W        W54533   5.798  14.228  10.366 -0.1200  0.1250 -0.3026
23318W        W54534   4.638   9.508   9.510  0.2536  0.0066 -0.3228
23319W        W54535  11.483  18.216   8.808 -0.1175 -0.0306  0.0771
23320W        W54536  19.904  24.040   0.179  0.0740  0.0175 -0.3270
23321W        W54537  25.358   9.651   0.139  0.2776  0.0018  0.1818
23322W        W54538  10.658  23.631   1.427 -0.1299 -0.0499 -0.2016
23323W        W54539  12.679  18.957  10.096  0.3173 -0.3449  0.3215
23324W        W54540  18.850  11.540   1.998  0.1820 -0.3885 -0.1796
23325W        W54541  24.839   6.108   1.254 -0.1037  0.4238  0.3232
23326W        W54542  21.672  22.918   1.729  0.0047  0.4735  0.0856
23327W        W54543   5.832   7.273   0.223  0.1597  0.1037  0.0671
23328W        W54544  20.071  13.455   7.932 -0.1712 -0.4265  0.1592
23329W        W54545   5.337   5.496   9.306  0.0605 -0.0245  0.1212
23330W        W54546  23.762  25.012   8.789 -0.0178 -0.0537  0.0314
23331W        W54547   3.510  14.567   9.620  0.0731 -0.2054 -0.1061
23332W        W54548  17.943   5.332   7.792 -0.1590 -0.0271 -0.1592
23333W        W54549  24.319   0.175   0.846 -0.0674 -0.1213  0.2294
23334W        W54550  16.844   8.823  10.085 -0.1944 -0.3648  0.0446
23335W        W54551  14.010  12.200   2.864  0.3694 -0.1908 -0.1670
23336W        W54552  15.818   7.938   7.658  0.1622  0.4163 -0.2620
23337W        W54553   8.410  10.125   0.868  0.1870  0.2089  0.0670
23338W        W54554  21.575  17.657   1.170  0.0741 -0.2412 -0.0439
23339W        W54555   1.200  22.382   3.760 -0.1592 -0.0863  0.4985
23340W        W54556  11.047  24.085   2.100  0.0607  0.0988  0.0640
23341W        W54557   3.603  18.552   2.016 -0.2719 -0.5132 -0.0248
23342W        W54558  23.449   7.673   8.085 -0.0142 -0.1125  0.0107
23343W        W54559  20.851  20.436   2.570 -0.0298  0.0402 -0.0705
23344W        W54560  26.122  24.933   8.627  0.0805 -0.2537 -0.0553
23345W        W54561  16.871   9.728   8.583  0.0102 -0.1076  0.0847
23346W        W54562  10.717   0.838   3.244  0.2086  0.0247  0.1269
23347W        W54563   2.581  16.335   2.592  0.1640  0.0148  0.0790
23348W        W54564  22.210  26.080   3.559 -0.1369 -0.1214 -0.0597
23349W        W54565  14.726  26.005   0.716  0.1117 -0.1114  0.0914
23350W        W54566   8.980  27.018   2.834  0.1378 -0.0546 -0.2473
23351W        W54567   1.028   0.041   9.060  0.0566  0.3320  0.2491
23352W        W54568   7.496  11.950   2.286  0.1291 -0.2014  0.1165
23353W        W54569  24.645   8.177   0.570  0.1176 -0.1781  0.1014
23354W        W54570  10.264  15.270   9.959 -0.0865  0.3242  0.0577
23355W        W54571  22.012  10.882   1.276  0.0134  0.2991  0.0481
23356W        W54572  27.310   6.874   2.901 -0.2678 -0.2118 -0.0574
23357W        W54573  14.367  11.608   8.477  0.1661  0.1726  0.0018
23358W        W54574   0.885  25.588   0.261 -0.0544 -0.0776  0.1715
23359W        W54575   9.743   2.341   0.747  0.1278  0.3248 -0.0654
23360W        W54576  20.591  22.765   0.213  0.0379 -0.3125  0.0156
23361W        W54577  17.316  17.679   1.364 -0.0288  0.0959 -0.0087
23362W        W54578  22.608  19.536   0.537  0.0351 -0.0834 -0.0442
23363W        W54579  22.632   4.882  10.022 -0.0343 -0.0347  0.1483
23364W        W54580  18.998   4.728   3.459  0.1759 -0.3462  0.0447
23365W        W54581  18.242  11.839   2.815  0.0709  0.3811 -0.0928
23366W        W54582   3.189   3.921   3.537  0.2726  0.3134 -0.0220
23367W        W54583   4.457  24.189   2.855 -0.1594  0.1492 -0.1651
23368W        W54584   9.846   9.452   8.236 -0.1031 -0.0586 -0.2486
23369W        W54585   3.086  21.036   1.148  0.2248 -0.4648  0.1572
23370W        W54586  17.387   7.945   9.882  0.3920  0.1106  0.1957
23371W        W54587   2.498   7.169   2.207 -0.2108 -0.1231  0.0636
23372W        W54588   4.401  23.700   7.315 -0.0758  0.1483 -0.1038
23373W        W54589   9.669   8.619   0.975  0.0219  0.2378 -0.0805
23374W        W54590  10.931  26.582   2.478 -0.1247 -0.3679  0.0236
23375W        W54591   0.908  21.391   8.581  0.0161 -0.2056  0.1010
23376W        W54592  19.265  25.265   7.636  0.3167  0.1748 -0.0891
23377W        W54593   0.034  17.029   8.770 -0.0775  0.0593  0.1412
23378W        W54594  22.023  18.247   8.037  0.1101 -0.2961 -0.1715
23379W        W54595   4.296   0.690   0.491 -0.0811 -0.0219  0.0461
23380W        W54596  23.066  19.569   0.603 -0.0742 -0.1561  0.0593
23381W        W54597   2.140   1.689   2.385  0.0657 -0.3612 -0.0493
23382W        W54598   3.120   3.689   2.725 -0.1093 -0.0355  0.1405
23383W        W54599  13.791   2.986   3.082  0.2353 -0.0674  0.1128
23384W        W54600  17.529   1.810   0.662 -0.0740  0.2215 -0.0151
23385W        W54601  27.106  23.835   3.373 -0.0651 -0.2652 -0.1547
23386W        W54602  19.980   4.748   0.167 -0.0233  0.0665 -0.0813
23387W        W54603  12.684   2.537   2.125 -0.2452  0.1193  0.2687
23388W        W54604  24.626   5.759   1.752  0.2334  0.3235  0.1129
23389W        W54605  24.169  15.412  10.387 -0.0696  0.1797 -0.2986
23390W        W54606  17.196   4.615  10.246  0.1457 -0.4169  0.2969
23391W        W54607   6.144  10.461   8.207 -0.0100  0.1232  0.1452
23392W        W54608  15.397  25.498   1.293  0.2696  0.4189  0.0637
23393W        W54609  24.616   3.707   1.156 -0.0899 -0.2330 -0.1478
23394W        W54610  22.135   2.058   2.151 -0.1505  0.1391  0.3428
23395W        W54611   3.202   6.479   9.133 -0.0809  0.0740  0.0547
23396W        W54612  26.332  10.476   3.843 -0.5594  0.1563  0.0225
23397W        W54613   4.769   2.421   3.576  0.3058  0.2769 -0.0101
23398W        W54614  26.325  10.168   1.930  0.1380 -0.1212  0.1114
23399W        W54615  19.146  14.937   8.953  0.1664 -0.0408 -0.3103
23400W        W54616  11.170   9.214   9.548 -0.0132  0.0228  0.0885
23401W        W54617  13.384   9.241   7.825  0.0153  0.0171 -0.1192
23402W        W54618  24.659  22.856   2.390  0.2195 -0.0361 -0.2250
23403W        W54619  24.105   5.749   9.520 -0.1036 -0.1790 -0.0920
23404W        W54620  14.400  19.594   9.855 -0.0899  0.2658 -0.3710
23405W        W54621   0.418  24.103  10.450 -0.1472 -0.3199  0.0486
23406W        W54622  11.798  13.899   8.028 -0.0138  0.0149 -0.1097
23407W        W54623   3.069  14.452   3.534  0.1795 -0.0942 -0.1621
23408W        W54624  27.249   3.106   3.690 -0.2564  0.1873  0.0314
23409W        W54625  24.719  19.697   1.502 -0.3041 -0.1204  0.0999
23410W        W54626  14.259   5.319   0.248  0.2001  0.1496  0.0063
23411W        W54627   4.546  19.518   0.444 -0.2312  0.0723  0.0919
23412W        W54628  12.011   9.835  10.223  0.3175  0.0856  0.1873
23413W        W54629   8.734  25.770   9.220  0.2384 -0.0226  0.1897
23414W        W54630  16.013  15.079   1.761 -0.0939  0.2645  0.2167
23415W        W54631   0.361  22.402   2.413  0.5501 -0.1122 -0.0321
23416W        W54632   1.009  17.702   9.184 -0.0130  0.1299  0.1571
23417W        W54633  25.118  17.670   2.655 -0.0745 -0.0996  0.1337
23418W        W54634  15.108  16.667   9.458  0.0208 -0.4300  0.0950
23419W        W54635  25.041  26.599   0.879  0.0569 -0.0020 -0.0491
23420W        W54636  24.968  11.770   2.841 -0.0980  0.2122 -0.0735
23421W        W54637  21.747  13.784   2.915 -0.0624  0.0729  0.0063
23422W        W54638  21.483  25.766   3.217  0.1396 -0.3535 -0.2143
23423W        W54639  24.475   7.743   8.071  0.0524  0.2486  0.2576
23424W        W54640  24.388  25.047   8.980 -0.2698  0.0686  0.1863
23425W        W54641  25.641  24.210   8.382 -0.3613  0.0985 -0.1332
23426W        W54642  24.010  10.088   8.734 -0.5402  0.2238 -0.1494
23427W        W54643  23.332   1.074  10.003  0.2824 -0.2928  0.0629
23428W        W54644  24.114  14.745   2.902  0.0803 -0.1945  0.1703
23429W        W54645  19.166   7.393   0.780 -0.1964  0.1138 -0.3870
23430W        W54646  27.047   2.116   8.454 -0.0732  0.1906 -0.1340
23431W        W54647  10.266  24.754   9.171 -0.2881  0.2420 -0.0690
23432W        W54648  14.159  10.375   1.519 -0.0181 -0.0000 -0.3223
23433W        W54649  25.545   6.464   8.908 -0.0404  0.0811  0.0785
23434W        W54650  20.487  20.957   7.442  0.2653 -0.4726 -0.1662
23435W        W54651   8.972  12.074   9.563 -0.2063 -0.1889  0.0064
23436W        W54652   6.942   5.578  10.225  0.0266  0.2563  0.0205
23437W        W54653  17.326   4.535   3.278 -0.0997 -0.2000 -0.1021
23438W        W54654  18.385  23.795   9.796 -0.2353  0.0789 -0.0632
23439W        W54655  20.729  20.048   9.041  0.2775  0.1641  0.0825
23440W        W54656  17.051  18.029   7.450  0.3151 -0.2136  0.0979
23441W        W54657  15.312  27.047   0.211 -0.0251  0.0841  0.0118
23442W        W54658  20.787  21.952  10.337  0.3359 -0.2649  0.0523
23443W        W54659  24.575   0.382   9.621 -0.1387  0.2469 -0.2175
23444W        W54660  20.550   1.663   0.350  0.0550  0.0531 -0.0735
23445W        W54661  24.507   3.307   2.024  0.1265  0.1800  0.0602
23446W        W54662   5.928   9.117   7.533  0.0584 -0.0543 -0.0026
23447W        W54663  10.179  14.274   9.912 -0.2012  0.3080  0.1267
23448W        W54664   5.301   0.920   2.727 -0.0764 -0.1072  0.0135
23449W        W54665  16.642  22.647   0.040 -0.2108  0.2833  0.1417
23450W        W54666  16.334  17.408   1.628 -0.0860  0.2037 -0.4016
23451W        W54667  19.235  19.037   2.335 -0.0523  0.0743 -0.0982
23452W        W54668  10.585   0.343   8.037 -0.2571  0.0808  0.1500
23453W        W54669   8.172  18.512   1.680  0.2008  0.1105 -0.1821
23454W        W54670  20.143  26.051   0.012  0.0062  0.0829 -0.3677
23455W        W54671   9.043  19.056   3.043  0.2197 -0.1015 -0.1518
23456W        W54672   0.266   3.190   3.074  0.0340  0.0554  0.0798
23457W        W54673   7.007  24.495   0.840  0.2228  0.0214 -0.0497
23458W        W54674  10.153  15.836   1.644 -0.2085 -0.0429 -0.4955
23459W        W54675  13.283  12.728   0.154 -0.1929 -0.2321 -0.0742
23460W        W54676  24.551  14.662   2.616 -0.0795  0.0649  0.0096
23461W        W54677  23.011  27.316   7.219 -0.1736 -0.5373 -0.1777
23462W        W54678  11.276  17.655   3.148  0.0101  0.0188 -0.2226
23463W        W54679  14.023   7.133   2.311 -0.0122 -0.2891 -0.4050
23464W        W54680  21.553   0.223   0.298  0.1865  0.0796  0.1288
23465W        W54681  15.351  27.501   2.541 -0.2036 -0.0184 -0.2100
23466W        W54682  11.742  12.442   2.742 -0.0290 -0.0864  0.0997
23467W        W54683  21.609  24.169   2.264 -0.0263  0.1466  0.0095
23468W        W54684  22.378  14.781   1.922  0.2054 -0.3737 -0.0375
23469W        W54685  11.652  18.455   9.248 -0.0133  0.3201 -0.0463
23470W        W54686  17.260  11.930  10.003 -0.0617 -0.0884  0.0907
23471W        W54687  23.751  24.307   9.146  0.2799  0.2010 -0.1215
23472W        W54688   7.344  12.923   9.724 -0.0747 -0.4654 -0.0609
23473W        W54689  12.805  20.419   0.556 -0.2935  0.1931 -0.2271
23474W        W54690   8.622  27.382   3.486  0.3417  0.0303 -0.3496
23475W        W54691  11.049  17.675   0.985  0.0641  0.1431  0.2076
23476W        W54692  18.711  27.322   3.341 -0.1734  0.2129 -0.0963
23477W        W54693   4.809   1.650   3.193  0.1345 -0.0022  0.2291
23478W        W54694  17.741  14.942   2.194  0.2246 -0.1333  0.0335
23479W        W54695  20.653  18.777   7.518  0.1750  0.0724 -0.0095
23480W        W54696   6.542  11.692   2.049  0.1316  0.3472 -0.2976
23481W        W54697  24.373   2.067   1.785 -0.0403 -0.1357  0.1440
23482W        W54698  21.276   9.855   9.256 -0.0064 -0.0812 -0.1415
23483W        W54699  21.968  22.593   7.131  0.0016  0.2121 -0.0561
23484W        W54700   4.939   9.329   2.570 -0.1867  0.1457 -0.0406
23485W        W54701   2.694   2.527   9.519 -0.2208  0.3039  0.2088
23486W        W54702   6.472  17.746   0.187  0.2057 -0.1163 -0.1297
23487W        W54703  22.069   9.485   1.398 -0.2064 -0.1066  0.0294
23488W        W54704  27.621  16.133   3.107  0.2265  0.1066 -0.1943
23489W        W54705  13.062  25.560   0.316 -0.2153 -0.2420 -0.5365
23490W        W54706   6.237   1.231   2.924  0.0269  0.2272 -0.2908
23491W        W54707  22.278  17.677   9.767  0.4389 -0.0180 -0.2257
23492W        W54708  12.292  13.404   9.037 -0.2927  0.1902  0.0777
23493W        W54709  20.035  24.045   8.993  0.3288  0.1059  0.2556
23494W        W54710  14.401  27.596   2.530 -0.2138 -0.1804  0.3256
23495W        W54711   3.894   8.484   2.630 -0.1057  0.1782  0.0038
23496W        W54712   7.258  14.157   8.480 -0.0452 -0.2857 -0.0531
23497W        W54713  13.648   1.605   2.655  0.1321  0.2792  0.3591
23498W        W54714   7.876  26.962  10.239  0.4336  0.0191  0.1060
23499W        W54715  21.447  22.400   2.466 -0.0159 -0.0259  0.3059
23500W        W54716  20.716  13.287   0.108 -0.0028  0.1337 -0.1331
23501W        W54717   0.921   4.474   8.388 -0.0224  0.0435 -0.0655
23502W        W54718  12.132  21.986  10.447 -0.0045  0.0645  0.1285
23503W        W54719  22.505  21.328   7.272 -0.3569 -0.1432  0.1305
23504W        W54720   9.803  17.874   8.555  0.2884  0.4053 -0.2877
23505W        W54721  26.765  18.975   0.054  0.3206 -0.2235 -0.1729
23506W        W54722   2.755  25.708   0.320  0.0770  0.0790  0.5161
23507W        W54723  24.933  20.544   9.433  0.4823  0.0788  0.3841
23508W        W54724  17.305  27.089   9.446  0.0156 -0.0231  0.0840
23509W        W54725  20.499  26.536   7.954 -0.0184 -0.1330 -0.2324
23510W        W54726  16.054  14.537   9.653  0.1810  0.0227 -0.1730
23511W        W54727  25.480   8.569   1.417 -0.0260 -0.0905 -0.1392
23512W        W54728   5.047  13.727  10.376  0.0958  0.1077 -0.0347
23513W        W54729   2.838  17.568   9.148  0.3852 -0.3061 -0.3482
23514W        W54730  21.635   1.237   0.811 -0.1610  0.1499 -0.0913
23515W        W54731  22.854   9.474   8.918 -0.1273 -0.2182  0.0901
23516W        W54732  10.597  12.304   9.333  0.4635 -0.0597 -0.3852
23517W        W54733  18.494   2.084   2.313  0.0940  0.2025  0.1539
23518W        W54734  12.614  27.589   1.898 -0.2955 -0.0299  0.1192
23519W        W54735  24.482   1.752   2.623 -0.0703 -0.2213  0.0916
23520W        W54736  18.292   2.650   1.779 -0.0285 -0.2036  0.0211
23521W        W54737  21.758  18.436   3.460  0.0205  0.0950 -0.3994
23522W        W54738  23.915  11.605   2.100  0.0129 -0.1645  0.2391
23523W        W54739  18.320  23.109  10.477  0.1101 -0.1045  0.1510
23524W        W54740   3.317  12.659   2.634  0.0154  0.0007  0.1998
23525W        W54741  11.602   1.656   0.144  0.0626 -0.1074  0.1107
23526W        W54742  11.022  14.043   2.474 -0.3130  0.1375 -0.2055
23527W        W54743   8.032  16.832   1.155 -0.1156  0.1220  0.1726
23528W        W54744  13.423  25.627  10.465  0.0310 -0.2508  0.1485
23529W        W54745  19.615  14.885   9.978 -0.0925 -0.1697  0.3466
23530W        W54746   3.861  26.737   9.845 -0.1457 -0.1878 -0.1492
23531W        W54747  11.402   2.446   1.269  0.0507 -0.1802  0.0363
23532W        W54748   0.054  18.725   2.272  0.0623  0.1297 -0.1540
23533W        W54749  17.794  25.925   0.320  0.1501 -0.0847 -0.1457
23534W        W54750   9.484  14.865   0.899 -0.1325  0.0297 -0.1030
23535W        W54751  10.872  15.167   0.223 -0.0329  0.0456  0.0173
23536W        W54752  13.948  21.365   9.934 -0.1434  0.2953 -0.0339
23537W        W54753  11.816  21.883   2.411  0.1439 -0.4656  0.2166
23538W        W54754  10.668   9.006   9.531  0.0106  0.2666 -0.2512
23539W        W54755  12.481  14.643   8.720  0.1783 -0.1537 -0.0186
23540W        W54756  23.674   4.554  10.480 -0.0401 -0.0603 -0.3032
23541W        W54757   3.150  15.871   8.382  0.1135 -0.2440  0.0861
23542W        W54758  15.858  21.910   8.529  0.0077  0.1400  0.0498
23543W        W54759   2.604  22.317  10.325 -0.0169 -0.2083 -0.2590
23544W        W54760  27.618  21.474   8.285 -0.0971  0.0646 -0.1090
23545W        W54761  21.440  21.896   2.315 -0.0869  0.0455 -0.1843
23546W        W54762   8.199   9.996   9.796  0.0145  0.2549  0.1470
23547W        W54763  11.760  13.202   1.497 -0.2509 -0.1422  0.2703
23548W        W54764  27.467   1.655  10.436 -0.2796  0.2128  0.0199
23549W        W54765   0.901   2.410   1.369  0.5702  0.0481 -0.5870
23550W        W54766  22.058  22.299  10.371 -0.0243  0.0607 -0.2048
23551W        W54767  24.510   3.207   0.075 -0.0743  0.1241 -0.0826
23552W        W54768   3.149  10.723   0.610  0.1238 -0.0062  0.0869
23553W        W54769  13.882  15.219   3.433  0.1893  0.0616 -0.2516
23554W        W54770   7.000   7.635   9.578 -0.0600 -0.2044 -0.1900
23555W        W54771  26.587  11.296   0.549 -0.2004 -0.1610 -0.1997
23556W        W54772  11.012   2.572   1.758  0.0108 -0.0696  0.0104
23557W        W54773  14.334   1.560   8.664  0.1529 -0.0979 -0.3781
23558W        W54774  19.766  25.038   0.810 -0.1204  0.1270  0.3829
23559W        W54775   5.896  26.203   8.276  0.0119 -0.1792  0.1130
23560W        W54776  14.274   5.385   2.485  0.0898  0.0167 -0.0826
23561W        W54777   5.978   1.811   9.672 -0.1476 -0.3899  0.0370
23562W        W54778  10.572  24.290   9.523  0.0833  0.1603 -0.0939
23563W        W54779  17.998  21.445   1.836  0.0480 -0.0650 -0.0122
23564W        W54780  25.885  17.445   0.416  0.3364 -0.0771  0.1233
23565W        W54781  22.578  10.398   7.892 -0.2899  0.4237 -0.0388
23566W        W54782   5.297  17.282   2.240 -0.0883 -0.2789  0.3815
23567W        W54783  21.063  22.656   8.449  0.3421 -0.1834  0.3252
23568W        W54784  24.465  15.600   7.046 -0.1764  0.1685 -0.1241
23569W        W54785   4.979  26.679   9.820 -0.1376  0.0403 -0.2703
23570W        W54786   4.086  11.416   1.378 -0.3384 -0.3259 -0.0226
23571W        W54787  23.238  27.005   9.349  0.3409  0.0312 -0.1552
23572W        W54788   4.920  20.570   8.383  0.2154 -0.0536 -0.2516
23573W        W54789  15.717  17.407   3.574  0.0648 -0.1048  0.0629
23574W        W54790  21.333   6.212   1.011 -0.0227  0.3333  0.1215
23575W        W54791  21.573   5.322   8.058 -0.1761 -0.0410  0.0053
23576W        W54792  25.558   6.308   2.923 -0.3108 -0.0452 -0.1421
23577W        W54793  15.838   8.558   1.502  0.0554  0.0096  0.1845
23578W        W54794   2.020  27.400   0.207 -0.0883  0.2049  0.0870
23579W        W54795   4.029   1.086   8.778 -0.1073 -0.1908  0.3062
23580W        W54796  25.592  10.071   3.709 -0.2822  0.1728 -0.3417
23581W        W54797   6.255   9.997   7.677 -0.0884 -0.0299  0.1179
23582W        W54798  24.548   2.383   8.645 -0.0820  0.0884  0.0421
23583W        W54799  12.478  18.701   0.069 -0.3988 -0.1683 -0.2277
23584W        W54800  26.002  17.708   9.188  0.0860 -0.0126  0.0613
23585W        W54801  19.448  16.948   1.027  0.0047 -0.2141  0.1665
23586W        W54802  19.441  11.417   7.975 -0.1264 -0.0677 -0.2365
23587W        W54803  24.918   3.300   0.559 -0.5212 -0.1376 -0.0709
23588W        W54804  14.436  24.799   0.986 -0.0668 -0.0420 -0.0904
23589W        W54805  11.832  26.388   3.418 -0.3735  0.0390  0.1048
23590W        W54806  11.630  24.528   8.010 -0.0741 -0.1131  0.0038
23591W        W54807  11.509  22.593   9.980 -0.1318  0.1472  0.3438
23592W        W54808  20.462   1.687   0.873  0.0361 -0.0431  0.0266
23593W        W54809  17.744  15.186   1.759  0.1569 -0.0985 -0.0364
23594W        W54810  18.494  26.398   9.528  0.1207  0.0891 -0.2309
23595W        W54811  20.099  10.329   1.343  0.1554 -0.1628 -0.1641
23596W        W54812  18.551  27.406   0.152  0.0928  0.1312 -0.1436
23597W        W54813  10.769  14.095   8.118 -0.2583  0.2472 -0.1836
23598W        W54814   6.405  21.864   2.128 -0.1513 -0.1066 -0.0801
23599W        W54815   6.070  22.089  10.541 -0.0574  0.0325  0.0335
23600W        W54816  24.861   6.261   3.893  0.1906 -0.2307 -0.3540
23601W        W54817  12.477  27.516   9.754 -0.4201  0.0548  0.3837
23602W        W54818   8.253  16.085   9.511  0.4116 -0.3218  0.2119
23603W        W54819  13.841  25.117   1.433  0.3221 -0.2181  0.0610
23604W        W54820  19.539  21.992   2.807 -0.2693 -0.0549 -0.1612
23605W        W54821  16.656   3.828   2.964  0.0524  0.1455 -0.0720
23606W        W54822  10.165  22.911   1.291 -0.2192  0.2630 -0.0196
23607W        W54823   0.625  15.540   2.051 -0.2077 -0.1942  0.1784
23608W        W54824  15.211   9.975  10.100  0.0874 -0.0314  0.0583
23609W        W54825  20.076  15.150   0.001  0.0593 -0.1480  0.3489
23610W        W54826  26.349  13.010   8.028 -0.0577  0.1252  0.5266
23611W        W54827  23.053   8.418   1.274  0.1835  0.1846  0.0313
23612W        W54828  20.442  20.573   0.036  0.2889 -0.1443  0.1644
23613W        W54829  25.662  20.107   8.907 -0.1820  0.0143  0.2537
23614W        W54830  10.487   4.403   2.748 -0.1329 -0.3699  0.0216
23615W        W54831  13.874  20.617  10.258 -0.2171  0.1814 -0.3668
23616W        W54832  23.552  17.595   9.091  0.0326 -0.0075  0.1617
23617W        W54833   5.471  25.917   8.287 -0.1373 -0.0864  0.3171
23618W        W54834  13.067  17.504   2.773  0.0854 -0.0535  0.1421
23619W        W54835  25.676  11.973   1.992  0.0229 -0.2191 -0.2210
23620W        W54836  18.546  19.311   9.435  0.2429 -0.3509  0.2909
23621W        W54837  12.742   0.767   3.073  0.2402  0.0333 -0.0780
23622W        W54838   5.266   2.655   0.389  0.0214  0.2485 -0.0389
23623W        W54839  23.749  14.602   3.188  0.0945  0.6064  0.0769
23624W        W54840  18.968   1.156   9.787 -0.4720  0.1781 -0.1370
23625W        W54841  11.030  10.922   7.866  0.0574 -0.4108  0.1608
23626W        W54842  19.454  25.066   1.236 -0.1407  0.3169  0.4227
23627W        W54843   7.306  17.655   9.448 -0.1450  0.1550  0.3036
23628W        W54844  10.160  14.018   7.915  0.2468 -0.5892 -0.2542
23629W        W54845   7.557   1.246   1.586 -0.3047  0.0649 -0.0033
23630W        W54846   8.731  12.896   8.386  0.0076 -0.1899 -0.0448
23631W        W54847  19.344  15.112   1.113  0.0520  0.0697 -0.0221
23632W        W54848   7.234  17.736   2.569  0.1308  0.2782  0.3099
23633W        W54849  13.528  15.723   0.112  0.0644  0.0023  0.2005
23634W        W54850   3.742   0.399   2.304  0.0011 -0.1037 -0.0192
23635W        W54851  10.070   0.961   7.998  0.0085 -0.0584 -0.0090
23636W        W54852  21.788  27.419   0.968 -0.1071 -0.1095  0.0874
23637W        W54853  12.082  13.373   0.156  0.4153  0.0798  0.0806
23638W        W54854  23.930   3.978   1.088 -0.1070  0.0115  0.1647
23639W        W54855  19.262  17.246   2.366 -0.0305 -0.1292 -0.1111
23640W        W54856  13.807  14.817   2.496 -0.2369  0.1573  0.1672
23641W        W54857   1.136  14.083  10.159 -0.1146  0.2292 -0.0512
23642W        W54858  22.424   4.859   8.273  0.2016 -0.0976  0.2184
23643W        W54859   0.125  27.211   2.807 -0.0016 -0.1891 -0.0717
23644W        W54860  19.731   0.215   0.581 -0.1771 -0.1343 -0.0109
23645W        W54861  26.411  14.882   2.992  0.0414  0.0035  0.2411
23646W        W54862  19.734  18.404   9.105 -0.2802 -0.3239 -0.0935
23647W        W54863  18.605  25.520   2.966  0.0187  0.1569  0.0237
23648W        W54864   9.409   8.420   1.998  0.2458 -0.0218  0.0673
23649W        W54865  21.764   8.419   2.371  0.2141 -0.0801 -0.1837
23650W        W54866   1.897  27.459   3.361  0.0303  0.1109 -0.2058
23651W        W54867  26.323   5.527  10.531  0.2397 -0.2722  0.0193
23652W        W54868   1.005  16.692   3.613  0.0214 -0.0726 -0.2613
23653W        W54869   8.287  15.949   7.939 -0.3198  0.1417  0.3092
23654W        W54870   4.753  18.295   0.989 -0.0448  0.0500  0.1546
23655W        W54871  25.140  20.659   7.620  0.1591 -0.1748 -0.0143
23656W        W54872   8.896   9.089   7.208  0.0780 -0.1129 -0.2096
23657W        W54873   8.780  11.600   9.360  0.1843  0.2068 -0.1433
23658W        W54874   9.895  15.351   2.425  0.0326  0.2817 -0.1297
23659W        W54875  19.127  10.024   3.197 -0.0303  0.1024  0.1208
23660W        W54876   9.463  15.401   0.108  0.2359 -0.1347 -0.1724
23661W        W54877  17.886   8.015   9.209  0.0431 -0.1487  0.0133
23662W        W54878  10.633  22.259   2.827 -0.1801  0.0557 -0.3603
23663W        W54879  11.924   5.293   0.206 -0.0087  0.2660 -0.0384
23664W        W54880  19.483   1.641   0.955  0.0446 -0.0151 -0.2664
23665W        W54881   3.960   7.673   8.077 -0.0974 -0.2162 -0.4302
23666W        W54882  16.119   4.201   1.570 -0.0457 -0.1282 -0.1299
23667W        W54883  13.865  14.026   1.334 -0.0967 -0.1080  0.3212
23668W        W54884   3.275  22.940   9.268  0.1951  0.0997 -0.1651
23669W        W54885  15.969   2.402   2.990  0.2779 -0.0016 -0.0785
23670W        W54886   3.946  11.987   1.179  0.1533 -0.0141  0.3078
23671W        W54887  16.549   5.624  10.449  0.3059  0.1510  0.0222
23672W        W54888   4.538  23.694   9.507 -0.1011  0.0690 -0.0506
23673W        W54889   3.686  14.512   1.159  0.2011  0.2245  0.1211
23674W        W54890  22.385  26.414   9.005 -0.1917  0.1121  0.0543
23675W        W54891  21.840  23.487   9.619  0.2647  0.1894 -0.1747
23676W        W54892  16.054   4.879   1.600  0.1440 -0.2707 -0.3031
23677W        W54893   1.749   1.490   3.182  0.1694  0.1366 -0.0691
23678W        W54894  21.217   1.456   1.139 -0.1398 -0.2073  0.1402
23679W        W54895  10.439  19.716   0.680  0.0902 -0.1293 -0.0251
23680W        W54896  19.517  12.283   8.780 -0.2726  0.2528  0.4558
23681W        W54897   4.176  24.165   8.509 -0.1805 -0.1043 -0.2923
23682W        W54898   2.859  24.621   0.606 -0.0457 -0.1671  0.3086
23683W        W54899  27.238  16.124   3.845  0.0102  0.2020  0.1048
23684W        W54900  11.086  25.459   2.252  0.0941  0.1250  0.2561
23685W        W54901  12.585  25.784  10.188 -0.4942 -0.0360  0.1101
23686W        W54902   6.247  24.599   9.042 -0.1781 -0.1220 -0.0071
23687W        W54903  16.172  27.061   1.579  0.2746  0.0082  0.0515
23688W        W54904  14.480   1.118   1.823 -0.1840  0.1233 -0.1621
23689W        W54905  17.285  21.612   3.461 -0.0653  0.3298  0.1455
23690W        W54906  12.340  19.951   9.415  0.0339 -0.1549  0.1770
23691W        W54907  27.451  11.032   2.053 -0.2598  0.0006  0.0415
23692W        W54908  17.828  10.865   0.167  0.1092 -0.3315  0.3712
23693W        W54909  27.098   8.299   8.224 -0.0440  0.0382  0.2265
23694W        W54910  23.930   6.512   8.606  0.0093 -0.1552 -0.2759
23695W        W54911  11.047  22.278   1.304 -0.3198 -0.0415  0.1490
23696W        W54912  14.019   7.527   9.262 -0.0345 -0.1760 -0.1282
23697W        W54913   4.396  19.131   0.747 -0.2394 -0.2250  0.3269
23698W        W54914   3.260  25.712   3.082  0.2194 -0.0022  0.0375
23699W        W54915  23.155   3.722   9.549  0.0805  0.1388  0.1513
23700W        W54916  11.849   7.984   8.427 -0.0440 -0.1005  0.2184
23701W        W54917  11.080  20.809   1.317 -0.0267 -0.0618 -0.3180
23702W        W54918  24.023  16.148   7.933  0.1141  0.2756  0.0854
23703W        W54919  16.585   2.887   8.156  0.1007 -0.2953 -0.0571
23704W        W54920  24.700  21.414   3.516  0.2334 -0.2439  0.3536
23705W        W54921   1.465   1.364   8.395 -0.0983 -0.0854 -0.1616
23706W        W54922  19.033   8.010   7.818 -0.0846 -0.1226  0.1106
23707W        W54923   8.396  15.486   7.548 -0.2449 -0.2024 -0.2858
23708W        W54924   6.981   5.739   8.431  0.3581 -0.0959  0.0954
23709W        W54925  22.274   3.873   1.434  0.0921 -0.0015  0.1615
23710W        W54926  26.425   3.825   1.393 -0.2475  0.2254  0.2021
23711W        W54927  20.690  13.921   2.951  0.1008 -0.0491  0.3615
23712W        W54928  26.263   4.970   3.437  0.1769 -0.0147 -0.1649
23713W        W54929  11.198  19.793  10.207  0.0347 -0.1495 -0.0765
23714W        W54930  12.835   5.452   0.213  0.0853  0.0112 -0.3906
23715W        W54931   1.310   8.873   2.940 -0.0160 -0.0393 -0.0981
23716W        W54932  17.372  18.858   0.695  0.1757  0.0750  0.2022
23717W        W54933  13.727   4.547   0.285 -0.0572 -0.1523  0.0192
23718W        W54934   8.415   8.580   2.490 -0.1304 -0.0171  0.0272
23719W        W54935   0.850  21.902   3.037 -0.1693 -0.0815 -0.2174
23720W        W54936  23.479  21.512   1.139 -0.2365 -0.2438  0.2606
23721W        W54937   0.397  21.744   9.355  0.1028 -0.0478  0.3092
23722W        W54938   6.340  11.009   7.583 -0.3711  0.0567  0.1530
23723W        W54939  25.295  27.539   3.575  0.1526 -0.1017  0.1750
23724W        W54940  16.864  15.695   0.313 -0.2648  0.0757 -0.2110
23725W        W54941  18.374   8.043   9.401  0.3251  0.0476  0.2789
23726W        W54942  19.401  21.885   0.715  0.1236  0.0649 -0.0803
23727W        W54943  20.909  12.860   8.621 -0.0266 -0.0035  0.2413
23728W        W54944  14.256   9.879   0.611  0.1986  0.0124 -0.4594
23729W        W54945  17.787  19.367   8.758 -0.0037  0.1122  0.4661
23730W        W54946  19.881   0.314   7.571 -0.0242  0.2866 -0.1653
23731W        W54947  13.464  11.460   9.829 -0.3165 -0.1785  0.0542
23732W        W54948   0.526  16.399   7.818 -0.0208  0.0053 -0.2959
23733W        W54949   9.103   6.672   1.869 -0.1766  0.1084 -0.2288
23734W        W54950  22.153  12.648   2.447  0.0079 -0.0156  0.0912
23735W        W54951   5.420   0.453  10.393 -0.2482  0.1553 -0.0308
23736W        W54952  16.831   8.397   0.648 -0.2146 -0.1103 -0.1870
23737W        W54953   2.998   7.524  10.106  0.1894 -0.3007  0.0018
23738W        W54954  12.121   5.554   2.708 -0.0804  0.1250  0.0211
23739W        W54955  25.723   3.730   2.594  0.1734  0.0779 -0.0988
23740W        W54956  13.188  14.811   1.352 -0.0583  0.1787 -0.4958
23741W        W54957  21.164   8.588   3.783  0.0321  0.0693  0.2640
23742W        W54958   2.732  25.266   9.581  0.0163  0.1523 -0.0064
23743W        W54959   0.009  18.717   3.153 -0.0877  0.1362 -0.0777
23744W        W54960  21.607   4.814   7.803  0.3988  0.1346 -0.0847
23745W        W54961  26.390   9.666   1.898 -0.1671  0.4258  0.0901
23746W        W54962  10.375   4.393   0.017 -0.1098 -0.0714 -0.1475
23747W        W54963  23.509  23.052   2.693  0.1504 -0.0248 -0.1210
23748W        W54964  17.884   0.507  10.280  0.0802  0.2387 -0.1989
23749W        W54965   3.314   6.060   8.197 -0.0143 -0.0399  0.2427
23750W        W54966  25.388   5.438   2.575 -0.3529  0.1474  0.0850
23751W        W54967   7.564   2.544   9.223 -0.0543 -0.0790 -0.0565
23752W        W54968   6.948  23.757   1.360  0.0337 -0.1969  0.1063
23753W        W54969  16.466   9.413   2.330 -0.2207 -0.2616  0.0910
23754W        W54970   2.468   3.094   3.352 -0.2311 -0.0050  0.1331
23755W        W54971  20.508   0.517   9.989  0.2185 -0.0210 -0.4596
23756W        W54972  17.176   7.860   8.152 -0.0435  0.5298  0.0822
23757W        W54973  12.365   3.794   8.360  0.0117  0.1196  0.0877
23758W        W54974  12.349  13.981   9.953 -0.0517 -0.0225  0.2373
23759W        W54975  11.177  20.908   3.094 -0.1281 -0.1607 -0.0665
23760W        W54976  25.140   2.522   2.182 -0.1554 -0.1222  0.3704
23761W        W54977  27.066  13.766   8.432 -0.4513 -0.1751 -0.0756
23762W        W54978   2.016  11.618   9.314 -0.1078  0.1882  0.1572
23763W        W54979   2.951  14.060   2.028 -0.0267 -0.2067  0.1541
23764W        W54980  18.562   4.283  10.456 -0.1315 -0.0317  0.2955
23765W        W54981  14.344  12.011   1.494 -0.0258  0.1352 -0.2250
23766W        W54982  24.400  26.885   0.458 -0.1476 -0.0071 -0.0808
23767W        W54983  25.986   0.583   1.686  0.1488 -0.2824  0.0405
23768W        W54984  20.571  24.526   0.852  0.3623  0.0407 -0.1921
23769W        W54985  19.646  10.087   2.210  0.0480  0.4581  0.0148
23770W        W54986  19.085   6.162   2.328 -0.0775 -0.0350  0.0683
23771W        W54987  11.071   1.888   9.115  0.1459 -0.0587 -0.0829
23772W        W54988  14.493   6.635   2.034  0.4052 -0.0415 -0.0904
23773W        W54989  25.716  19.177   8.895  0.0425  0.0940  0.1921
23774W        W54990  18.250  19.186  10.350  0.2024  0.1494  0.1005
23775W        W54991  19.585  18.247  10.437 -0.0462 -0.0480  0.0297
23776W        W54992  22.789   0.151   9.873 -0.2332  0.0196  0.0891
23777W        W54993  14.788  22.005   2.060 -0.1561 -0.2667  0.0507
23778W        W54994  22.215  10.281   1.948 -0.0507  0.1701  0.2419
23779W        W54995  23.734  27.181   2.238  0.2491 -0.0612 -0.0088
23780W        W54996   6.629   5.342  10.532 -0.3713 -0.3818  0.0231
23781W        W54997  23.417   9.888   8.047 -0.1815  0.3593  0.1495
23782W        W54998  19.151  26.909   7.993 -0.0421 -0.1828 -0.0445
23783W        W54999   6.146   4.198   0.180  0.0754  0.1593 -0.3067
23784W        W55000  19.267  16.245   1.472 -0.4330  0.2138  0.3823
23785W        W55001   4.707   0.045   2.544 -0.0783  0.5026 -0.0460
23786W        W55002  25.123  25.799   9.456 -0.0777  0.2546 -0.3525
23787W        W55003   0.344   0.739   7.471  0.2007 -0.0551  0.0698
23788W        W55004  11.194   5.401   9.816 -0.0867 -0.1102  0.1172
23789W        W55005  10.437  18.568   8.237  0.2080 -0.1256 -0.0803
23790W        W55006  17.288  12.950   0.425  0.2160  0.0293  0.5099
23791W        W55007   6.403  26.911   2.213 -0.1813  0.1323 -0.0856
23792W        W55008  13.456  15.550   1.715 -0.2129 -0.0177  0.1213
23793W        W55009  16.650  25.709   8.370  0.1424  0.1680  0.3288
23794W        W55010   4.119  19.192  10.212  0.4329 -0.2450  0.1829
23795W        W55011  17.943  15.980   9.205  0.0179  0.0832 -0.1295
23796W        W55012  11.214  13.270   1.674  0.0935 -0.0607 -0.0727
23797W        W55013  13.365   4.958   1.449  0.1497 -0.1133  0.1654
23798W        W55014   7.527  12.610   0.288  0.3674  0.1997  0.1278
23799W        W55015  22.988   2.711   3.221 -0.0588 -0.1178 -0.0742
23800W        W55016  18.737  20.369   0.818 -0.0028 -0.0993 -0.1763
23801W        W55017  15.762   5.333   8.718  0.0755  0.1401 -0.4066
23802W        W55018   3.640  22.210   8.622 -0.1942  0.2011  0.1905
23803W        W55019   0.373  25.334   8.964  0.2301  0.2249 -0.1235
23804W        W55020  13.032   5.777  10.009  0.3843 -0.4493 -0.1839
23805W        W55021  20.428  15.542   2.788  0.1698 -0.1409  0.2932
23806W        W55022   3.190  24.522   2.433  0.1163 -0.2579 -0.0474
23807W        W55023  12.589  11.231   0.235  0.0031 -0.0741 -0.3171
23808W        W55024   9.832  16.463   8.610  0.2782  0.1136  0.1418
23809W        W55025  13.955  21.909   8.844  0.0237 -0.0902  0.1163
23810W        W55026  27.099  16.862   2.934 -0.0498 -0.2041 -0.2099
23811W        W55027  15.256  14.194   1.173 -0.2306 -0.0779  0.2373
23812W        W55028  18.237  10.110   3.359 -0.4028 -0.0274 -0.1033
23813W        W55029  11.290   4.812   2.747  0.1886  0.0243  0.1616
23814W        W55030   6.535  14.730   0.498 -0.0030 -0.1206 -0.3344
23815W        W55031   7.374   4.052   2.476 -0.1105  0.0188 -0.0007
23816W        W55032  18.451   8.295   8.264 -0.0439  0.0949  0.0170
23817W        W55033   6.522  15.686   1.953 -0.0234  0.1876  0.2602
23818W        W55034  18.000   6.381   0.065  0.0793  0.3156  0.0545
23819W        W55035  13.793  14.412   7.924 -0.0733  0.1173  0.3802
23820W        W55036  22.685   3.509   9.846  0.3379  0.1463 -0.0426
23821W        W55037   0.970   2.458   8.680 -0.0576  0.3326  0.2668
23822W        W55038   1.916   2.523   2.712 -0.2635 -0.4178 -0.3744
23823W        W55039   5.300  11.337   2.037  0.1145 -0.2324 -0.1014
23824W        W55040   5.162  14.424   1.665  0.2250  0.1185  0.1053
23825W        W55041   3.141  24.720   7.808  0.0136 -0.1101  0.0828
23826W        W55042   3.012   0.449   9.115  0.0972  0.3513 -0.0323
23827W        W55043   4.322  26.578   0.506  0.0363 -0.1131  0.3469
23828W        W55044   6.115   3.300   7.793 -0.1940  0.0167 -0.1624
23829W        W55045  11.177  17.497   2.566 -0.1577  0.1277  0.4114
23830W        W55046   1.908  17.075   3.598 -0.0284 -0.0260  0.1445
23831W        W55047  10.623  15.357   9.585 -0.0140 -0.0754  0.1003
23832W        W55048   7.509  23.647   1.250  0.0572  0.2347  0.2268
23833W        W55049  27.336  25.715   1.785  0.1050 -0.2843 -0.3781
23834W        W55050  11.890  21.028   1.425  0.1737 -0.0695 -0.0074
23835W        W55051   3.373  17.965   0.440 -0.3235  0.0009  0.0783
23836W        W55052   2.441  24.312   1.434 -0.2533 -0.0448  0.0104
23837W        W55053   7.732  17.200   3.724 -0.0654  0.1551  0.0918
23838W        W55054  21.393   3.496   1.391  0.0026  0.4178  0.2065
23839W        W55055  23.834   0.645   9.048  0.3371  0.1030 -0.0927
23840W        W55056  15.455   1.617   2.458  0.3852 -0.1983 -0.0655
23841W        W55057  16.474   9.042   0.938 -0.2521  0.0919  0.1308
23842W        W55058  26.765   1.601   3.804 -0.1263  0.1301  0.1362
23843W        W55059  21.306  24.774   9.761 -0.0580  0.0664  0.2639
23844W        W55060  21.830  12.585   1.244  0.2294  0.4019 -0.1414
23845W        W55061  26.124  10.065   2.836 -0.1577  0.0833 -0.4199
23846W        W55062  16.642  25.517   9.795  0.2050  0.0265 -0.0106
23847W        W55063  21.973  18.520   1.858 -0.2083  0.0979  0.2596
23848W        W55064  26.955  26.309  10.317 -0.0883 -0.0441 -0.0778
23849W        W55065  15.033   7.696   0.332 -0.2427  0.4613  0.1766
23850W        W55066  15.212  12.589   7.696 -0.2088  0.0260 -0.1925
23851W        W55067  21.275  18.884   1.308 -0.2348  0.1878  0.0139
23852W        W55068  25.204  20.986   9.459  0.1247  0.2017 -0.1772
23853W        W55069   9.264  10.513   9.806  0.0328  0.1071  0.1542
23854W        W55070  18.056  13.273   0.868  0.1031 -0.1705 -0.1858
23855W        W55071   8.283   4.232   7.845  0.1311 -0.1121  0.0800
23856W        W55072  13.988  15.691   9.116  0.0288 -0.2740 -0.2022
23857W        W55073  12.791  24.874   2.698 -0.1987  0.5002 -0.0204
23858W        W55074  26.062  17.642   9.676 -0.1022  0.0680 -0.0420
23859W        W55075  20.029  27.059   8.553 -0.2219 -0.3317 -0.0776
23860W        W55076  12.793   2.163   8.968 -0.1276  0.2375 -0.1652
23861W        W55077  14.964  26.076   0.185  0.3793  0.1512  0.0934
23862W        W55078  22.220  26.669   8.162  0.0595  0.1395  0.1089
23863W        W55079  19.941  14.094   2.618 -0.2809 -0.1335 -0.2121
23864W        W55080   7.940  22.077   0.258  0.3124  0.0863 -0.2463
23865W        W55081  22.822   6.860  10.152 -0.0971  0.2221  0.2031
23866W        W55082  13.331   5.429   0.112 -0.1562  0.2430  0.0602
23867W        W55083  16.536  25.256   0.451  0.1137  0.0982 -0.0379
23868W        W55084   3.148  22.560   8.454 -0.2433  0.3724 -0.2050
23869W        W55085   3.388  26.184   1.985  0.2343  0.0424 -0.0002
23870W        W55086  10.554  21.931   9.401 -0.0395  0.0502 -0.0024
23871W        W55087   5.251  25.238   7.627 -0.0081 -0.0017 -0.0324
23872W        W55088  13.284  23.600   1.729  0.1213  0.0160 -0.1355
23873W        W55089  23.032  21.396   7.867 -0.2669  0.0200 -0.0641
23874W        W55090   5.249   7.481   8.769 -0.3563 -0.1185  0.0364
23875W        W55091   8.424   4.303   9.611  0.1095 -0.1482  0.0509
23876W        W55092  22.807   9.961   1.998  0.2548  0.0919 -0.1492
23877W        W55093  18.296   1.253   0.890 -0.2215 -0.0737  0.0322
23878W        W55094   2.795  14.689  10.505 -0.1919 -0.4260  0.0832
23879W        W55095  26.701  24.363   0.990  0.1399  0.0205  0.0454
23880W        W55096  25.390   5.457   3.370  0.0065 -0.1695 -0.1499
23881W        W55097   7.725  13.672   9.690 -0.0446  0.0140 -0.0871
23882W        W55098   8.986   3.119  10.523 -0.1276  0.1867  0.0654
23883W        W55099  23.734  26.608   1.163  0.2100  0.0033 -0.1467
23884W        W55100   4.589  23.846   8.392  0.3453 -0.0145 -0.0259
23885W        W55101  16.702  23.814   3.080  0.2488  0.0198 -0.0118
23886W        W55102  20.928   9.234   7.775  0.1222  0.1969 -0.3398
23887W        W55103  17.980   1.895   9.131 -0.2533  0.3569 -0.0562
23888W        W55104  12.921   6.813   8.581  0.0564  0.0305 -0.1446
23889W        W55105   2.262  16.762   3.187 -0.0828  0.5185  0.2350
23890W        W55106   3.805  22.904   3.118  0.0673  0.0041  0.3164
23891W        W55107  21.837  21.516   2.204  0.1963  0.1796  0.1692
23892W        W55108   1.630  24.980   1.766 -0.2095 -0.2498  0.2558
23893W        W55109  19.857  17.584   2.235 -0.1508 -0.0625 -0.0961
23894W        W55110   8.736   1.413   7.683 -0.1118  0.0980  0.1717
23895W        W55111   5.009   3.624   0.773 -0.1027  0.0933 -0.1029
23896W        W55112  12.566  26.790   2.311 -0.1271 -0.3209  0.1357
23897W        W55113  18.240   2.837   0.328  0.2658  0.0064 -0.2275
23898W        W55114  24.415   9.793   8.920 -0.2320  0.0354 -0.0262
23899W        W55115  18.859  21.207   0.040 -0.0202 -0.2874  0.0891
23900W        W55116   3.533  11.438   0.775  0.2048  0.1647  0.0720
23901W        W55117  26.949  17.288   9.182  0.5402 -0.2778  0.0005
23902W        W55118  13.579  17.102   9.181 -0.0710 -0.0481 -0.0060
23903W        W55119  23.363  17.703   1.038  0.1292  0.1995 -0.0865
23904W        W55120  12.911   1.372   8.640 -0.2697  0.0133 -0.0594
23905W        W55121  26.416   7.787   2.985 -0.1925 -0.1588  0.0205
23906W        W55122   4.595  15.446   9.409 -0.0890 -0.2480  0.3178
23907W        W55123  10.490  18.353   0.636 -0.0195  0.0223 -0.3993
23908W        W55124   0.559   2.246   3.531 -0.0105 -0.2046 -0.1662
23909W        W55125  13.496  25.623   8.765  0.0960 -0.0231  0.0155
23910W        W55126   7.005   1.939   0.586 -0.1496 -0.3459  0.2102
23911W        W55127  19.994  18.973  10.496 -0.0904  0.0827  0.0224
23912W        W55128   5.007  11.442   7.744 -0.2427 -0.0232 -0.1217
23913W        W55129   7.283   9.749   8.922  0.1470 -0.0772  0.0075
23914W        W55130  15.196  13.453   8.071 -0.1129  0.0940  0.2511
23915W        W55131  21.492  12.185   8.893 -0.1002 -0.0693  0.2140
23916W        W55132   9.466   3.958  10.061  0.0522  0.1082  0.4577
23917W        W55133  14.786  21.793   1.555 -0.0509  0.1153  0.0838
23918W        W55134   3.390   4.107  10.270 -0.2908 -0.1854 -0.1413
23919W        W55135  19.766   1.617   2.431  0.1784  0.0526 -0.2455
23920W        W55136  18.609  27.426   1.872  0.0297  0.1639 -0.0481
23921W        W55137  20.243   3.291   2.733  0.0631 -0.1446 -0.4167
23922W        W55138  16.174   5.929   0.136 -0.2480  0.1826 -0.1344
23923W        W55139  18.500  18.477   8.365  0.0950 -0.1825  0.0232
23924W        W55140  25.539  19.692   8.586  0.2848 -0.1370  0.1328
23925W        W55141  22.830  16.921   9.931  0.1474  0.0944  0.1806
23926W        W55142  11.083  22.392   3.037 -0.1680 -0.0814 -0.0013
23927W        W55143   0.565  22.896   2.336  0.2890 -0.0704 -0.3291
23928W        W55144  12.103  18.853   8.477  0.0215 -0.0168 -0.0024
23929W        W55145   3.444   3.599   1.553 -0.2830 -0.1142  0.2562
23930W        W55146  10.063   4.811   2.713  0.2139 -0.0223 -0.1033
23931W        W55147  22.739  11.141  10.032 -0.1152  0.0667 -0.0324
23932W        W55148  20.901   6.824   9.289 -0.1352  0.1150 -0.1187
23933W        W55149   4.518   9.545   2.443  0.1173 -0.2838 -0.2211
23934W        W55150   5.672  20.758   2.602  0.1311  0.3507  0.0779
23935W        W55151  17.217  11.686   2.738 -0.0904 -0.2221 -0.0185
23936W        W55152   5.732  20.344   3.743 -0.2171  0.3564 -0.3490
23937W        W55153  26.095  26.318   0.237  0.0031  0.0950 -0.3101
23938W        W55154  13.420  25.171   0.034  0.0609 -0.2477 -0.1199
23939W        W55155   5.769  17.582   8.966 -0.1295 -0.0642  0.3369
23940W        W55156   6.440  21.860   9.478  0.0368  0.0834  0.0984
23941W        W55157  17.127   2.253   2.823  0.0625 -0.0153  0.1087
23942W        W55158  13.066   2.781   0.841  0.2939 -0.0846  0.0907
23943W        W55159  19.352  18.360   1.650  0.0025 -0.2539 -0.1958
23944W        W55160   3.479  22.307   8.108 -0.1679  0.0984 -0.1256
23945W        W55161  10.658  27.253   1.064 -0.2481 -0.0915 -0.2074
23946W        W55162  10.000  11.669   2.081 -0.4482 -0.2711  0.1956
23947W        W55163   4.699  21.596   2.012 -0.1033  0.2075  0.2084
23948W        W55164  24.593   8.155   8.533 -0.1409  0.1534 -0.0852
23949W        W55165  19.922   9.927   9.230 -0.0581 -0.2698  0.2434
23950W        W55166   8.010   9.841   8.269  0.0556 -0.1853  0.2651
23951W        W55167   3.340  26.593   2.413 -0.1578 -0.1355  0.3914
23952W        W55168  22.332  13.469  10.156 -0.0292  0.4990  0.1325
23953W        W55169   7.761  24.693   9.645 -0.1741 -0.0752  0.2961
23954W        W55170   2.853   3.006   9.482  0.0533  0.0637  0.1040
23955W        W55171  21.323   6.834   1.845 -0.2046  0.1025 -0.0340
23956W        W55172  10.786  11.708  10.454  0.0528 -0.2684  0.1239
23957W        W55173  17.029   5.993   0.692 -0.1040 -0.0043 -0.0067
23958W        W55174  19.510  17.608   0.483  0.1780 -0.0211 -0.1049
23959W        W55175  19.264   7.810   2.371 -0.0084 -0.0678 -0.2131
23960W        W55176   0.331  20.582   7.972 -0.0747 -0.1329  0.1242
23961W        W55177  14.328   4.456   2.538  0.1458  0.0121  0.0720
23962W        W55178  21.705  19.542   0.966  0.0070 -0.2289 -0.3773
23963W        W55179  24.694  26.480   2.844 -0.1460  0.3355  0.2263
23964W        W55180  19.579  16.430   8.401  0.1205  0.2702  0.0919
23965W        W55181  15.787   2.837   9.778 -0.2178 -0.1828  0.0879
23966W        W55182  24.808  23.678   2.497 -0.0125 -0.0842  0.0378
23967W        W55183  25.974  25.879   0.449 -0.0161 -0.2380 -0.1051
23968W        W55184   0.849  18.357   8.810  0.1248 -0.2224 -0.0018
23969W        W55185  20.361   5.600   0.814  0.4577  0.0106 -0.3580
23970W        W55186  25.686   7.870   1.175 -0.0711 -0.5813 -0.0931
23971W        W55187  12.079  12.581   3.180  0.2791  0.0961 -0.0736
23972W        W55188   4.916  22.244   1.769 -0.2502 -0.4891 -0.2119
23973W        W55189  22.505  18.811   2.551 -0.1773 -0.0699  0.2056
23974W        W55190   5.126   3.992   9.870  0.0703 -0.0151  0.1799
23975W        W55191  14.496  15.468   8.642  0.0299  0.0656  0.1258
23976W        W55192  20.844  19.731   0.186  0.3098  0.3058 -0.1849
23977W        W55193  24.468  21.590   9.338 -0.0994  0.1299 -0.0444
23978W        W55194   3.330   0.483   3.236  0.1253 -0.3027 -0.2753
23979W        W55195  13.827   0.454   1.923 -0.1978 -0.0059 -0.2263
23980W        W55196  15.533  25.301   9.651 -0.0424  0.1060  0.0166
23981W        W55197  16.730  14.654   2.230  0.3522 -0.1580  0.4135
23982W        W55198  26.744  17.091   1.785 -0.0413  0.1432 -0.2210
23983W        W55199  17.978  10.235   2.770  0.1856  0.1190 -0.0881
23984W        W55200  23.712  16.503   0.283 -0.0057 -0.1892 -0.2256
23985W        W55201  24.364  24.826   1.697 -0.2951 -0.2081  0.0399
23986W        W55202  22.389   7.897   0.376 -0.1972  0.0610  0.2087
23987W        W55203  23.819  11.235   3.346 -0.1665 -0.0920  0.1843
23988W        W55204  18.173   7.362   0.463 -0.2623 -0.0341 -0.1365
23989W        W55205  15.859  16.560   2.043  0.0665 -0.0369 -0.1143
23990W        W55206  15.093  26.693   8.559 -0.2270 -0.1069 -0.1256
23991W        W55207  11.564   2.700   2.889  0.1707 -0.0714 -0.1696
23992W        W55208  15.327  21.878   2.220  0.0772 -0.1434 -0.0279
23993W        W55209  13.953  20.541   0.508 -0.2086 -0.2731 -0.1313
23994W        W55210   0.749   7.997   2.306  0.1536 -0.1128 -0.1386
23995W        W55211   3.478  26.716   1.871  0.3634  0.3865  0.0583
23996W        W55212  25.640   2.361   2.995  0.0428  0.1026  0.0823
23997W        W55213   0.588   3.925   1.503  0.2547 -0.4899 -0.2475
23998W        W55214  16.231  26.378   7.851 -0.3390 -0.2580 -0.1763
23999W        W55215  12.066  15.749   3.429  0.0186  0.2574 -0.4770
24000W        W55216   2.192  14.691   9.361  0.1734 -0.2570  0.0291
24001W        W55217   1.319  17.117   9.958 -0.2316 -0.1338 -0.0729
24002W        W55218  13.312  16.906  10.022 -0.0520 -0.3062 -0.0257
24003W        W55219  23.161   2.163   2.460 -0.2587 -0.0271 -0.1921
24004W        W55220  11.012  11.149   8.740  0.2585  0.0380  0.2576
24005W        W55221   4.543   3.492   2.976 -0.1623  0.2512 -0.1104
24006W        W55222  18.416  17.731   0.414 -0.1628 -0.3804 -0.0674
24007W        W55223  15.949   4.460   3.688 -0.3480  0.0371 -0.2025
24008W        W55224  18.073  24.780   0.984  0.3155  0.0232  0.0787
24009W        W55225   7.367   1.763   0.292 -0.0691  0.0795 -0.0297
24010W        W55226  27.036   4.381   1.261  0.1142 -0.3135  0.3930
24011W        W55227  24.691  19.433   7.702 -0.3685 -0.0356 -0.2323
24012W        W55228   2.335  22.678   2.100 -0.0337 -0.0050 -0.0572
24013W        W55229  25.641   6.682  10.507 -0.4400  0.2655 -0.0083
24014W        W55230   1.748   5.365   9.442 -0.0619  0.1033  0.1008
24015W        W55231  20.088   5.996  10.195  0.0384  0.1113  0.2968
24016W        W55232  24.293  15.712   7.967  0.0419 -0.2790 -0.1051
24017W        W55233   0.261   6.598   2.218  0.1749  0.1539 -0.0237
24018W        W55234  13.238  21.034   2.241  0.1553 -0.1342  0.1706
24019W        W55235  10.781  25.194   9.020  0.3221  0.1135  0.2585
24020W        W55236  26.145   6.804  10.350 -0.0094  0.4746  0.3401
24021W        W55237   6.559  25.194  10.377  0.1505 -0.2314  0.1753
24022W        W55238   7.180  21.634   8.870 -0.0387 -0.0243 -0.2852
24023W        W55239   4.527   7.935  10.453 -0.5546 -0.1597  0.2000
24024W        W55240   7.096  20.505   0.063  0.0440 -0.0750  0.0228
24025W        W55241   5.489  25.858   0.891  0.2457  0.3828  0.3135
24026W        W55242  15.096  10.416   0.290  0.4327  0.3399 -0.1479
24027W        W55243  12.434  10.989   3.310 -0.0384  0.2319 -0.0389
24028W        W55244   3.184  11.472   9.145 -0.0043  0.1414 -0.0037
24029W        W55245  22.360  14.889   2.751 -0.1141  0.2464 -0.0939
24030W        W55246  11.922  22.639   9.564 -0.1129  0.2101 -0.0855
24031W        W55247  20.416  13.666   7.354 -0.1117  0.1614  0.0018
24032W        W55248   1.846   1.252   8.818 -0.1744 -0.2331  0.0986
24033W        W55249  13.274  22.624   8.632 -0.2976  0.1969  0.1124
24034W        W55250  25.097  11.137   9.428 -0.1175  0.0198  0.0044
24035W        W55251  12.068  10.087   2.282 -0.0619 -0.0396  0.1487
24036W        W55252   4.428  26.468   9.102  0.2920  0.1009 -0.2210
24037W        W55253  24.856   1.288   3.361 -0.2183 -0.0011 -0.2857
24038W        W55254   5.622  21.900   8.746 -0.2938 -0.1451 -0.0007
24039W        W55255  27.455   6.997   8.236 -0.0918 -0.0917 -0.1072
24040W        W55256  22.670  17.980   2.318 -0.0378 -0.2145  0.1415
24041W        W55257  13.128  26.461   8.787 -0.0533 -0.0247 -0.3009
24042W        W55258   9.855   6.792   1.725  0.1046  0.0772  0.3598
24043W        W55259  15.980  14.171  10.448 -0.2893  0.1098 -0.0791
24044W        W55260  22.840  21.903   9.804  0.0508 -0.3086  0.2825
24045W        W55261  26.096  25.446   8.491  0.1716  0.0489 -0.1508
24046W        W55262  22.004   6.757   7.459  0.2077  0.1641 -0.0704
24047W        W55263  12.052  27.525   9.048 -0.0462  0.1267  0.0427
24048W        W55264  25.785  16.384   2.767 -0.1347 -0.1440  0.1253
24049W        W55265  21.715   7.005   8.387 -0.0369 -0.0605  0.0111
24050W        W55266  26.859  17.153   7.756  0.5624 -0.0123  0.0703
24051W        W55267  20.572  20.175   7.639 -0.0667 -0.1261  0.3170
24052W        W55268   1.165   6.047   1.119 -0.2704 -0.1765  0.0244
24053W        W55269   3.883  13.115   7.625 -0.0283 -0.2197  0.2250
24054W        W55270  21.015   9.691   8.749  0.0378 -0.0508 -0.1425
24055W        W55271   8.574   7.061   9.827 -0.2990 -0.3404 -0.0651
24056W        W55272   5.469   4.373   2.750 -0.0039  0.0347  0.1173
24057W        W55273  12.829  24.009   9.483 -0.0238 -0.2875 -0.0206
24058W        W55274   0.655   9.565   8.884 -0.1064  0.1655  0.2890
24059W        W55275   7.928   9.539  10.116  0.0203 -0.2702  0.1136
24060W        W55276  22.420  12.850   7.138  0.1281 -0.5287 -0.0891
24061W        W55277   4.488  11.431   7.968 -0.1035  0.0622  0.1592
24062W        W55278  25.371   1.752   1.016 -0.1209  0.3743 -0.0816
24063W        W55279  22.291  25.325   0.958 -0.2644  0.0287  0.1574
24064W        W55280   4.814  11.144   8.745 -0.0766 -0.0061  0.2367
24065W        W55281   6.913  19.061   1.409  0.2844  0.2264  0.2227
24066W        W55282   8.522   7.674   7.964 -0.1424  0.2167 -0.3011
24067W        W55283  11.018   9.893   2.412 -0.1236  0.0385  0.3286
24068W        W55284  24.044  13.487   0.238 -0.0327 -0.0174  0.2064
24069W        W55285   7.582  20.012   1.744  0.0525  0.0531 -0.0304
24070W        W55286   2.947   9.643   0.439 -0.1549  0.1563 -0.3803
24071W        W55287   0.191  10.362   8.747  0.0741 -0.1900  0.0647
24072W        W55288   4.878  20.317   9.808  0.0760 -0.0278  0.0098
24073W        W55289  20.340   2.989   8.237  0.1837 -0.2629 -0.3140
24074W        W55290   8.777  19.799   0.030  0.0219  0.0215  0.1192
24075W        W55291   9.012   2.220  10.512  0.2131  0.1046  0.2262
24076W        W55292  22.532  15.610   1.765 -0.1639 -0.0939 -0.0354
24077W        W55293  13.664   9.826   1.289 -0.1297  0.0253 -0.3041
24078W        W55294   7.229   1.173   9.152  0.0202 -0.1471  0.0852
24079W        W55295  11.329  22.992   1.076  0.1052  0.2568  0.0378
24080W        W55296  15.074  17.209   0.218  0.2303  0.0790  0.0040
24081W        W55297   4.797   8.077   8.428 -0.2011  0.4259 -0.0805
24082W        W55298  14.350  12.784   2.087  0.0428 -0.1845 -0.0711
24083W        W55299   1.803  10.122   9.392 -0.3032  0.3073 -0.1985
24084W        W55300  18.827  14.851   8.070 -0.0384 -0.0232 -0.6217
24085W        W55301   3.817   1.240   2.658  0.1224  0.4456  0.3165
24086W        W55302  19.169  15.973   0.035 -0.2035 -0.2009  0.0954
24087W        W55303  24.125   8.704   9.356  0.0274 -0.1915 -0.2946
24088W        W55304   7.332  25.709   8.122  0.2291 -0.0676 -0.3194
24089W        W55305  12.834  22.297   1.342  0.2014  0.0508 -0.3280
24090W        W55306   3.756   2.561   2.227 -0.3140  0.2602 -0.1586
24091W        W55307  11.908   7.601   8.100 -0.0574 -0.4027 -0.4027
24092W        W55308  16.009  20.144   9.592  0.0645  0.3215 -0.1859
24093W        W55309  24.467   1.903   0.783 -0.1251 -0.0429  0.2956
24094W        W55310   2.637   3.484   1.528 -0.1959  0.2104 -0.0319
24095W        W55311  13.537   2.736   0.622  0.2829 -0.3000 -0.0957
24096W        W55312  21.524   9.932   0.477 -0.1181  0.0597  0.2415
24097W        W55313   7.741  20.347   9.135  0.0854  0.1526 -0.1693
24098W        W55314  10.053  19.846   0.410 -0.0405  0.0183 -0.0206
24099W        W55315  18.821  12.607   2.382 -0.0780 -0.1663 -0.0713
24100W        W55316   9.088  24.291   2.691  0.1204  0.2413  0.0754
24101W        W55317  11.933  18.485   2.655 -0.0947  0.2356 -0.0282
24102W        W55318  19.440   9.427   9.933  0.0773 -0.0736  0.0408
24103W        W55319   9.912   9.976   3.018 -0.0238 -0.1715  0.2289
24104W        W55320  17.889  19.860   9.023  0.0733  0.1472 -0.0894
24105W        W55321  24.503  11.582   9.204  0.1770 -0.1833 -0.0760
24106W        W55322   0.459   9.173   9.715  0.2071  0.1390  0.1072
24107W        W55323  14.178  14.771   3.419  0.2256  0.1224 -0.0189
24108W        W55324  16.896  17.477   1.070  0.0524 -0.1508 -0.0373
24109W        W55325  15.501   6.339   2.893 -0.1857 -0.0066 -0.2002
24110W        W55326   9.152  11.205   2.778 -0.1424 -0.2387 -0.1562
24111W        W55327  23.214  27.378   8.348  0.0392 -0.2438  0.1613
24112W        W55328  25.311  11.218   3.631  0.0066  0.0305 -0.1469
24113W        W55329  19.297   5.786   2.118 -0.1926  0.1462  0.0698
24114W        W55330  26.864  14.090   8.735 -0.2342  0.1462 -0.1515
24115W        W55331  18.705   2.369   1.583  0.1052 -0.4034  0.1905
24116W        W55332   6.976  12.568   3.381  0.2228  0.1910  0.1758
24117W        W55333  19.474   2.998   8.506  0.2055 -0.0810  0.5951
24118W        W55334  24.448  23.922   1.513 -0.1562  0.0551 -0.1920
24119W        W55335  12.519  22.592   0.361  0.2739  0.1175  0.0419
24120W        W55336  21.627  27.230   2.205  0.1895 -0.1336 -0.1780
24121W        W55337  13.435  25.122   9.374 -0.2207 -0.0467  0.0484
24122W        W55338  26.175   9.101   1.383 -0.0169 -0.0417 -0.0677
24123W        W55339   4.348  22.864   3.146 -0.3313 -0.1024  0.1360
24124W        W55340   8.010  17.087   9.687  0.3444 -0.2122 -0.1888
24125W        W55341  26.431  12.535   8.278  0.0629 -0.2311 -0.1058
24126W        W55342  15.325  18.121   9.101  0.0525 -0.1424  0.2611
24127W        W55343  22.565  21.493   8.152 -0.0553 -0.0181  0.1741
24128W        W55344  18.575   4.652   8.308  0.0623 -0.1181  0.0537
24129W        W55345  13.240  16.653   8.997 -0.1399 -0.0029  0.4527
24130W        W55346  14.193  18.045   0.118  0.1611  0.1545  0.2799
24131W        W55347  11.675   3.105   2.089 -0.2346  0.2016 -0.3982
24132W        W55348   9.630  14.494   0.078 -0.1059 -0.1192  0.1545
24133W        W55349  13.829  19.399   0.013  0.1872 -0.1013 -0.1460
24134W        W55350  14.749  14.056   3.779 -0.2619  0.1274 -0.3542
24135W        W55351  15.801  14.043   9.077  0.2115  0.1362  0.1255
24136W        W55352   3.018  20.548   3.165 -0.3005  0.1313  0.1412
24137W        W55353  15.288  19.861   0.437  0.1606 -0.0009 -0.1668
24138W        W55354  20.421  14.069   3.389 -0.0452 -0.2851  0.1748
24139W        W55355   8.472   3.200   8.200 -0.0840 -0.2341  0.1298
24140W        W55356   4.874  22.892   3.128  0.0732  0.1776  0.2634
24141W        W55357   5.639  26.030   3.130  0.2854  0.0965  0.0119
24142W        W55358  10.190  12.891   9.559 -0.0946  0.1698  0.0639
24143W        W55359  16.171  10.485  10.166 -0.0818 -0.0130  0.2742
24144W        W55360  18.796   3.288   7.902  0.2168  0.2351  0.0066
24145W        W55361   5.462   1.681   0.641  0.1277 -0.1309  0.1090
24146W        W55362  21.306   7.463   0.718  0.1989  0.0228 -0.0031
24147W        W55363  12.096  27.251   8.619 -0.1065 -0.0217 -0.3558
24148W        W55364  14.865  16.479   8.230 -0.2909 -0.0798 -0.0803
24149W        W55365  26.446  14.442   8.643  0.3238  0.0550  0.1783
24150W        W55366  25.092   0.937   9.864 -0.2388 -0.1438 -0.0013
24151W        W55367  14.781  14.828   8.019  0.1091  0.2277 -0.1429
24152W        W55368   3.684  14.066   7.963 -0.0491 -0.0017 -0.0578
24153W        W55369  20.678   3.446   2.495 -0.1397 -0.0921  0.0066
24154W        W55370   1.041   8.401   9.489  0.1217 -0.0103  0.0012
24155W        W55371   4.119   5.765   3.451 -0.1282 -0.4335 -0.1136
24156W        W55372  12.082   5.609   1.840  0.0209  0.0815 -0.3392
24157W        W55373  15.687  12.458  10.345 -0.0487  0.1053 -0.2781
24158W        W55374  16.670  22.289   3.889 -0.0980 -0.0357  0.0381
24159W        W55375  26.815  25.186   2.411  0.2242 -0.1410  0.0199
24160W        W55376  14.963   3.200   0.006  0.0828  0.1731  0.1953
24161W        W55377  24.812  22.344  10.224 -0.2923  0.0309  0.2100
24162W        W55378  16.355  11.930  10.321 -0.1964  0.0226  0.3402
24163W        W55379  11.976   9.119   1.289  0.0933 -0.0326  0.2338
24164W        W55380  21.046  15.407   7.885 -0.1227 -0.0816  0.1632
24165W        W55381  27.257   4.011   8.909 -0.1556  0.2460 -0.1291
24166W        W55382   4.845  11.474   1.303  0.1686  0.0203  0.1777
24167W        W55383   2.278   9.218   9.717  0.0620  0.3148  0.0243
24168W        W55384  25.181  25.722   0.794 -0.3142  0.0279 -0.0789
24169W        W55385  27.002   5.253   8.679  0.2290 -0.2681  0.1089
24170W        W55386  18.219   7.040   7.361  0.1870 -0.0918 -0.2385
24171W        W55387  11.289   0.714   7.255 -0.2739  0.0443  0.0090
24172W        W55388  23.888  18.972   0.260  0.2705  0.1504 -0.0899
24173W        W55389   2.099  22.546   3.032 -0.1160  0.1301  0.3221
24174W        W55390   0.129  26.111   0.147  0.2566 -0.0196 -0.0382
24175W        W55391  10.879  20.357   1.489 -0.0284  0.4278 -0.0793
24176W        W55392   4.858  17.154  10.011  0.2440 -0.0420 -0.0916
24177W        W55393  26.230   6.002   0.681  0.2034  0.2973  0.1150
24178W        W55394  27.053  19.661   4.128 -0.0855 -0.0712 -0.3157
24179W        W55395  12.327   1.257   0.623  0.3593  0.0479  0.1330
24180W        W55396   0.049  26.029   1.465  0.0324  0.1407 -0.0504
24181W        W55397  16.177   1.205   1.677 -0.0833 -0.0926  0.0919
24182W        W55398  13.131  19.438   9.983 -0.0400 -0.0859 -0.0272
24183W        W55399   6.579  18.746   3.098  0.0078  0.1407 -0.2831
24184W        W55400  24.314   6.446   0.632  0.0717  0.1002 -0.2105
24185W        W55401  27.060  13.215   1.352 -0.1935 -0.0099  0.1692
24186W        W55402  10.435  19.035   1.047  0.2120 -0.5191 -0.0482
24187W        W55403  13.073  23.420  10.333  0.3906  0.0080  0.2056
24188W        W55404  23.344  16.010   2.464  0.0386 -0.1214 -0.0173
24189W        W55405  13.952  27.544   9.633 -0.0474  0.1543  0.0390
24190W        W55406   9.621  11.152  10.332  0.0828  0.1084 -0.1752
24191W        W55407   3.837   9.213   0.292  0.1336 -0.1408  0.3209
24192W        W55408   2.961  13.408   1.315 -0.0142 -0.1217  0.2011
24193W        W55409  27.525   4.721   1.794 -0.2202  0.0507 -0.3330
24194W        W55410  13.676  18.418   1.254 -0.0931 -0.2489  0.1417
24195W        W55411  20.758  25.610   0.203  0.2021  0.0971 -0.1164
24196W        W55412  20.680  21.844   9.786  0.1385  0.0404 -0.1842
24197W        W55413   6.920   2.439   1.968 -0.1294 -0.0430  0.1944
24198W        W55414  21.575   0.191  10.296 -0.2863  0.1355  0.0169
24199W        W55415  12.037  19.181   1.947 -0.0410 -0.0319  0.3164
24200W        W55416  20.351  11.313   9.216 -0.3082 -0.0615  0.2618
24201W        W55417  25.162   0.634   2.815  0.3677  0.0098 -0.0700
24202W        W55418  16.999   5.698   1.188 -0.1158 -0.0249 -0.0775
24203W        W55419  11.254   6.850   2.230 -0.0316 -0.0094 -0.1054
24204W        W55420   4.990  19.929   7.634 -0.2178 -0.0350 -0.2071
24205W        W55421  23.606  26.777   3.596 -0.0072  0.1561  0.0101
24206W        W55422  16.565   1.646  10.322 -0.3042 -0.0020 -0.0800
24207W        W55423  24.091  13.480   3.393  0.1107 -0.2832 -0.1325
24208W        W55424  23.956  24.054   7.965 -0.0339  0.0870  0.0713
24209W        W55425  27.599  13.537   3.750  0.1995  0.1592  0.0738
24210W        W55426  15.907  10.022   9.112  0.1111  0.0049 -0.2758
24211W        W55427  13.875   4.806   8.902 -0.1986 -0.0041  0.0700
24212W        W55428   4.548   1.617   9.963 -0.1313  0.0928 -0.1485
24213W        W55429  20.811   9.732   2.616  0.2778  0.0871  0.0705
24214W        W55430   8.639  11.251   2.671 -0.2653 -0.2022 -0.1011
24215W        W55431  13.328   3.671   0.879  0.3171 -0.0375 -0.0573
24216W        W55432   9.935  10.080   1.880 -0.0100  0.2042 -0.0857
24217W        W55433  17.910   5.827   9.665  0.0212  0.2127  0.2048
24218W        W55434   3.621   4.830   9.543  0.2364 -0.1611 -0.0845
24219W        W55435   6.532  14.427   8.935  0.1429  0.0911 -0.2089
24220W        W55436   9.188   8.951   8.230  0.2875  0.1928 -0.2052
24221W        W55437  11.240  10.591   9.522 -0.1069 -0.1263  0.2418
24222W        W55438   7.971  24.640   3.998 -0.0038  0.2818  0.1990
24223W        W55439  26.318  10.087   9.878  0.0434  0.0330  0.0247
24224W        W55440  18.573   7.928   2.876  0.2633  0.0388  0.2571
24225W        W55441   2.071  11.719   1.322 -0.0321  0.1364 -0.4453
24226W        W55442  15.246   8.187   8.348 -0.3824  0.0651 -0.0980
24227W        W55443   8.389   3.780   8.239 -0.0700 -0.1531  0.0683
24228W        W55444  13.971   0.585   7.923  0.0978 -0.0739 -0.0231
24229W        W55445   3.372  15.479   9.984  0.1986  0.0588 -0.2285
24230W        W55446  12.512   9.948  10.310  0.1126 -0.0336  0.1275
24231W        W55447   0.749  24.980   1.241 -0.0720  0.0539  0.1855
24232W        W55448   2.257  13.620   7.852  0.0746 -0.2264  0.0007
24233W        W55449  18.418  22.420   0.377  0.2202 -0.3289  0.1471
24234W        W55450   5.297  26.272   9.629  0.2590 -0.0335  0.2217
24235W        W55451   5.950  24.453   8.534  0.2186 -0.1875 -0.0696
24236W        W55452  21.630  19.109   7.080 -0.0165  0.0480 -0.0643
24237W        W55453  13.091  25.895  10.079 -0.0579  0.0111  0.2070
24238W        W55454  17.447   8.230   3.124 -0.1719  0.1042  0.1196
24239W        W55455  11.233   6.092   9.302 -0.0146  0.1697 -0.0727
24240W        W55456  16.833   6.088   9.766 -0.1728  0.1247  0.0317
24241W        W55457   7.240  20.612   2.159 -0.0606 -0.2176 -0.0805
24242W        W55458   9.796   4.409   3.427 -0.1909  0.1840  0.2279
24243W        W55459  24.878  17.046   8.843  0.1128  0.1016 -0.0502
24244W        W55460  18.899  14.259   2.886 -0.4190  0.0494 -0.0396
24245W        W55461   0.949  21.382   3.217  0.0086 -0.0392 -0.3644
24246W        W55462   1.794  26.721   2.341 -0.0051 -0.2240 -0.1387
24247W        W55463  23.398  24.314   9.933  0.0549 -0.3162  0.2275
24248W        W55464   1.518   9.307   7.922 -0.1164  0.3740 -0.1720
24249W        W55465  17.046  12.639   9.294 -0.1719  0.2785  0.2470
24250W        W55466  26.432   1.406   3.494 -0.0703  0.0557  0.1538
24251W        W55467   8.338  20.338   0.740 -0.3175  0.2308 -0.4428
24252W        W55468  19.986  22.288   2.987  0.2543  0.1123 -0.0160
24253W        W55469  23.703  26.933   3.072  0.2399  0.1908  0.1450
24254W        W55470  10.576  12.231   2.650  0.1170 -0.0436 -0.0040
24255W        W55471  24.017  23.075   7.730  0.1145 -0.2575  0.0126
24256W        W55472  11.345  21.340   9.805 -0.0726 -0.3205  0.3158
24257W        W55473  19.132   5.937   0.975 -0.0767  0.0922  0.0828
24258W        W55474  25.607   8.726  10.153  0.4574 -0.3275 -0.0081
24259W        W55475   3.005  17.827   1.623 -0.2546  0.0963 -0.1565
24260W        W55476   6.217  23.741   9.205 -0.0369 -0.4354 -0.1771
24261W        W55477  17.715  11.443   9.268  0.1507 -0.0291  0.2393
24262W        W55478  19.315  20.570   8.968 -0.2604 -0.1390 -0.0950
24263W        W55479  21.753  24.190   1.757  0.2118  0.0858 -0.2072
24264W        W55480  10.381  19.079   2.536  0.0284 -0.1148  0.0471
24265W        W55481  17.068  14.259   2.355  0.3812  0.2163 -0.0922
24266W        W55482  21.128  22.073   0.201  0.2132  0.0514  0.2132
24267W        W55483  16.540   2.395   9.306 -0.1142  0.5408 -0.1041
24268W        W55484  18.033   0.098   9.598  0.1454 -0.0926  0.2411
24269W        W55485  15.231  27.622  10.205  0.0423  0.1969  0.3724
24270W        W55486  21.831   2.653   9.110 -0.0441  0.1413 -0.1094
24271W        W55487  23.800   3.517   7.313  0.2262 -0.2137  0.1554
24272W        W55488  10.732  17.256   2.555  0.1059 -0.1370 -0.0159
24273W        W55489  14.045  19.966   9.870  0.1303 -0.1449  0.2699
24274W        W55490  18.604   4.435   8.749 -0.1352 -0.1036 -0.0870
24275W        W55491   4.703  12.496   2.410  0.0051 -0.0787  0.6039
24276W        W55492   0.110  19.834   1.253  0.0588 -0.1633 -0.2948
24277W        W55493   8.604  20.208  10.371  0.3755 -0.2351 -0.0838
24278W        W55494  18.864  18.119   9.682  0.0081 -0.0674 -0.2071
24279W        W55495   6.199   0.905   3.332 -0.0670 -0.0040 -0.3871
24280W        W55496  25.137  27.118   8.105 -0.0068 -0.2285  0.0516
24281W        W55497  22.934  17.524   0.021  0.3431 -0.1502  0.0508
24282W        W55498  18.782   6.385   7.920 -0.0312 -0.4090  0.0124
24283W        W55499  25.401  26.394   2.382 -0.0356  0.1437  0.1399
24284W        W55500  19.548  22.238   9.204  0.0616 -0.1060  0.0067
24285W        W55501   1.095   9.849   2.881 -0.3776  0.1721  0.0750
24286W        W55502  23.844   9.078   7.993 -0.0610 -0.0543  0.2458
24287W        W55503   5.062  15.473   9.171 -0.0633 -0.0259  0.0802
24288W        W55504  10.533   9.512   0.257 -0.0617 -0.2447  0.0249
24289W        W55505   0.555  18.909   2.668  0.0914  0.1301  0.1473
24290W        W55506   6.409  22.372   9.591 -0.1256  0.0569 -0.0153
24291W        W55507  23.529   3.115   0.433 -0.1057 -0.0846  0.0489
24292W        W55508  23.379   2.505   9.231  0.0937  0.0980  0.1696
24293W        W55509   1.294   0.390   2.561 -0.1956 -0.0645  0.0187
24294W        W55510  17.810  15.350   0.155  0.0799 -0.3359 -0.0122
24295W        W55511  11.269  17.827  10.397 -0.0417 -0.2691 -0.1364
24296W        W55512  22.057  14.466   2.866  0.1820  0.0347 -0.0103
24297W        W55513   5.882  11.348   0.773  0.2576 -0.2889  0.1079
24298W        W55514  26.032  18.691   3.147  0.1601  0.0953  0.0183
24299W        W55515   8.344  17.372   1.382 -0.1632  0.1935 -0.0563
24300W        W55516   1.730  15.311  10.331  0.2442  0.0035 -0.1949
24301W        W55517  21.093   5.373   1.596  0.1780 -0.0313 -0.2452
24302W        W55518  10.291  15.402   0.642  0.0270  0.2402  0.1597
24303W        W55519   5.978  23.653   2.522 -0.2984  0.0173  0.0714
24304W        W55520  19.361  11.923   0.065 -0.1077 -0.1367  0.1263
24305W        W55521  26.395   2.539   9.977  0.0321 -0.1691 -0.0138
24306W        W55522  15.253   3.418   2.350 -0.0642 -0.1126 -0.0702
24307W        W55523   3.903  24.025   8.932  0.0152  0.0402  0.0428
24308W        W55524  22.046  21.328   9.825 -0.0122  0.2503 -0.2360
24309W        W55525  10.608  27.127   1.805 -0.3178 -0.2059  0.0936
24310W        W55526  17.564  18.472   9.468  0.0186  0.1968  0.3415
24311W        W55527  16.976  23.492   0.394 -0.3012 -0.1677 -0.0204
24312W        W55528  13.578  15.767   8.295  0.3005  0.3707 -0.0903
24313W        W55529  17.936  24.300   9.192  0.0189  0.0008 -0.0049
24314W        W55530   5.086   8.253   2.047  0.0474 -0.0020  0.0181
24315W        W55531  20.033  18.071   0.034  0.1729 -0.1225 -0.1636
24316W        W55532  23.156   1.809   9.817  0.0263 -0.1919 -0.0590
24317W        W55533  15.949  25.573   8.312  0.0772 -0.2011  0.1846
24318W        W55534  21.800  20.207  10.116 -0.1385  0.0107 -0.1689
24319W        W55535  25.546  13.791   8.525 -0.1229 -0.0192  0.1557
24320W        W55536  22.058   5.612   1.499 -0.2025  0.2183  0.1079
24321W        W55537  22.141  19.323   8.863  0.1689  0.3113 -0.0891
24322W        W55538  11.121  25.659   8.421  0.0877 -0.1946  0.0405
24323W        W55539  23.883  21.476   1.890  0.1856 -0.1238 -0.1733
24324W        W55540  14.911  11.250   2.904  0.0341 -0.2713  0.0079
24325W        W55541  15.412   9.092   9.273  0.0748  0.0901  0.1653
24326W        W55542   9.029   6.888   9.017 -0.0758 -0.1118 -0.1301
24327W        W55543   1.708  16.362  10.316 -0.1808 -0.1557  0.3590
24328W        W55544  10.381   0.675   8.365 -0.2553 -0.1574  0.1735
24329W        W55545  20.368  17.522   2.125  0.0535  0.2084  0.0629
24330W        W55546  12.726  23.311   8.902 -0.0214  0.1597  0.1353
24331W        W55547  15.809  15.185   1.226  0.3518  0.0284  0.0332
24332W        W55548  15.322   0.775   1.353  0.0981  0.2479  0.0805
24333W        W55549  17.359   6.137   2.832  0.1759 -0.1056 -0.1326
24334W        W55550  15.125  17.678   9.212  0.2000  0.1893 -0.1722
24335W        W55551   8.898  17.032   8.743 -0.3128 -0.0109  0.0048
24336W        W55552   9.317  11.404   9.108  0.3547  0.2152  0.0655
24337W        W55553  22.763  24.101   2.035  0.1649  0.3423  0.0460
24338W        W55554  13.990  15.550   1.328 -0.0345 -0.3382  0.0982
24339W        W55555  24.950  26.791   7.758 -0.1846  0.1384  0.1546
24340W        W55556  10.129  18.062   8.233 -0.0627 -0.2196  0.2115
24341W        W55557  21.409   2.868   2.291 -0.2183 -0.0480  0.0435
24342W        W55558  19.914  26.234   2.997 -0.3007 -0.3195  0.0109
24343W        W55559  17.871   4.108   0.546 -0.0288  0.0060  0.1130
24344W        W55560  26.528   8.708   9.928 -0.1072 -0.0499 -0.2264
24345W        W55561  17.867  23.148  10.162  0.1572  0.0862 -0.2624
24346W        W55562  12.423   5.544   7.929 -0.1735  0.0066  0.2157
24347W        W55563   2.946  12.305   2.287  0.0385  0.1599 -0.0777
24348W        W55564  21.950   2.361  10.211  0.1723  0.1172  0.0181
24349W        W55565   0.392   3.354   7.933  0.2639 -0.2267 -0.0800
24350W        W55566  18.624  13.151   2.278  0.1625  0.1172  0.0714
24351W        W55567  25.036  14.155   3.217 -0.1778 -0.1967 -0.1832
24352W        W55568  16.562   6.532   6.948 -0.0143 -0.1020  0.0822
24353W        W55569   9.986  24.496   3.799  0.4089 -0.2823  0.0465
24354W        W55570  26.712  17.862   8.014  0.1945 -0.0925  0.1969
24355W        W55571  18.202  24.269   9.664 -0.3000 -0.1132  0.1560
24356W        W55572   0.142   9.155   0.723  0.0289 -0.0587  0.0369
24357W        W55573  10.872   4.038   9.872 -0.0899  0.0075  0.2150
24358W        W55574  27.078  10.829   9.360 -0.0221 -0.1705 -0.0589
24359W        W55575  25.912  18.809   9.802  0.0883 -0.0038  0.2364
24360W        W55576  11.890   3.101   8.849  0.0264  0.0799  0.2508
24361W        W55577  16.133  15.803   8.201  0.2656  0.0505 -0.0960
24362W        W55578   6.798  12.125   9.179 -0.1322 -0.0571  0.1380
24363W        W55579  10.728   7.730   1.661 -0.1588  0.0892  0.0352
24364W        W55580  19.550  11.304   3.235 -0.2147 -0.2419 -0.1754
24365W        W55581  20.699  16.051   8.934  0.0311 -0.0224  0.1427
24366W        W55582  12.614  20.770   0.233 -0.1258  0.5651  0.2881
24367W        W55583   1.034  20.942   2.924 -0.0539 -0.0396  0.1778
24368W        W55584  24.248  14.579   3.336 -0.0475 -0.1334 -0.3613
24369W        W55585  11.358  15.363   1.873  0.1550 -0.0162  0.2264
24370W        W55586  15.741  11.468   2.845 -0.0524  0.1381 -0.1591
24371W        W55587  10.132   2.064   2.184  0.1215  0.0766 -0.1480
24372W        W55588   7.350  26.613  10.207  0.0381 -0.1481 -0.1982
24373W        W55589  14.332  10.795   1.701 -0.1993 -0.1345  0.2588
24374W        W55590   6.109  16.101   1.808 -0.1061  0.1992  0.0049
24375W        W55591  12.745  14.711   9.125  0.0136  0.0098  0.1097
24376W        W55592  10.607  11.518   1.474  0.0749  0.0589 -0.0686
24377W        W55593   7.050  16.302   2.646  0.2631 -0.3334  0.0755
24378W        W55594   5.892  10.128  10.001  0.1386  0.2451 -0.0257
24379W        W55595   0.611   2.745   3.334 -0.1586 -0.0505 -0.0655
24380W        W55596   4.312   8.087   9.972  0.1568  0.0830  0.0711
24381W        W55597   4.972  23.522   2.567 -0.0012 -0.0002  0.0161
24382W        W55598  15.902  11.675   9.170 -0.0709 -0.0156  0.4224
24383W        W55599  15.681   2.884   3.782  0.3559 -0.1380  0.0697
24384W        W55600  27.155   9.265  10.278 -0.0873 -0.3887  0.0807
24385W        W55601  11.082  23.912  10.098  0.2179 -0.0786  0.0481
24386W        W55602  23.857   3.252   8.901 -0.0318 -0.2157  0.2053
24387W        W55603  15.354   6.118   1.954  0.1689 -0.3141  0.2301
24388W        W55604  20.752  13.125   7.864  0.2853 -0.1011  0.0162
24389W        W55605  20.744   6.737   1.551 -0.0536 -0.0002  0.1149
24390W        W55606   6.356   1.217   0.918  0.1267  0.2363  0.0395
24391W        W55607   6.643  27.560   3.788 -0.0526 -0.0986  0.3336
24392W        W55608  11.418   2.791   7.414  0.0312  0.2390 -0.3347
24393W        W55609  12.059  26.696   8.580 -0.1482  0.4065 -0.3655
24394W        W55610   6.524  25.263   2.835 -0.2830  0.2177 -0.0218
24395W        W55611  12.206   4.120  10.214 -0.2916  0.0022  0.2925
24396W        W55612  21.332  19.963   0.392  0.1433 -0.0091 -0.1577
24397W        W55613   7.930  11.292   8.275  0.0359 -0.1751  0.0257
24398W        W55614  23.635  16.930   2.984  0.0067  0.0077  0.1696
24399W        W55615  10.316   3.854   2.889 -0.0004 -0.1966  0.1156
24400W        W55616   4.212   4.248   9.410  0.0141 -0.2771  0.0333
24401W        W55617  11.907   8.881   8.722  0.0127  0.0210 -0.0389
24402W        W55618   7.831  11.745   2.784 -0.2529  0.0268  0.2205
24403W        W55619  21.930  20.381   7.771 -0.0304 -0.2130  0.0950
24404W        W55620  10.547  19.534   1.180 -0.1101 -0.5660  0.0829
24405W        W55621  11.374  19.168   8.793 -0.1244 -0.0613 -0.0870
24406W        W55622  16.430  12.713   7.892  0.0835 -0.0596 -0.3621
24407W        W55623  21.547  27.157  10.339 -0.2001  0.0250  0.3036
24408W        W55624   1.110  23.169   8.351  0.0039 -0.2537 -0.3885
24409W        W55625   2.916   1.703   9.556 -0.2037  0.0304  0.1081
24410W        W55626   6.101   6.707   8.493  0.2399 -0.0177  0.0921
24411W        W55627  15.821   8.834  10.341 -0.4824  0.0515  0.1130
24412W        W55628   5.720   7.046   8.499  0.0351 -0.0215  0.0047
24413W        W55629   8.810  26.147   2.648 -0.1007  0.1356  0.2246
24414W        W55630  23.032   0.869   0.819  0.0009 -0.3279 -0.1874
24415W        W55631  13.890  12.008   1.786 -0.1353  0.0367  0.1490
24416W        W55632   0.593   3.169   0.672 -0.3927  0.2538 -0.1116
24417W        W55633  11.781  12.855   9.759  0.1445  0.0869 -0.1746
24418W        W55634  22.174   1.346   2.736  0.0218 -0.0454 -0.1060
24419W        W55635  24.776   2.773   2.407  0.0881 -0.1734 -0.0171
24420W        W55636  10.169  27.004   1.371 -0.0239  0.2920  0.2033
24421W        W55637  16.958  10.435   7.639 -0.4574  0.0307 -0.3283
24422W        W55638  18.390  26.269   0.296  0.1135 -0.1170 -0.0548
24423W        W55639  12.497  12.221   3.721  0.0744  0.0710  0.1686
24424W        W55640   4.062  14.162   2.568 -0.0973  0.2406  0.0041
24425W        W55641  25.147  21.145  10.024 -0.1598  0.1777 -0.2371
24426W        W55642  13.932   1.441   9.231  0.3300 -0.2921  0.1867
24427W        W55643  14.368  10.981   0.028  0.0803  0.0548  0.2962
24428W        W55644   5.471  18.322   2.152 -0.5154 -0.2463 -0.0622
24429W        W55645  20.075  18.265   3.269 -0.0691  0.2245 -0.0353
24430W        W55646  20.925   3.024   2.226 -0.0738  0.3258 -0.0570
24431W        W55647  24.431  22.393   2.472  0.1601 -0.1157 -0.1606
24432W        W55648   3.981  10.043   9.127  0.0351  0.3611 -0.0083
24433W        W55649  21.612  27.093   1.700 -0.2230 -0.0356  0.2069
24434W        W55650  27.577  17.497   1.470 -0.1520 -0.3843  0.1109
24435W        W55651   3.297  14.236   1.601  0.0502  0.4145 -0.1088
24436W        W55652   4.425  26.068   1.827  0.0985  0.2387  0.1542
24437W        W55653   4.681   1.141   8.765  0.1153 -0.1229  0.0689
24438W        W55654   6.837  18.791   2.627  0.0549 -0.2533  0.1408
24439W        W55655   1.965   7.439   3.135 -0.2178 -0.0100  0.3852
24440W        W55656  16.464  15.480   8.218 -0.2099  0.0209 -0.0550
24441W        W55657  19.577   3.496   8.738  0.3728  0.1768  0.0112
24442W        W55658   0.220   6.111   9.247  0.1092 -0.3246 -0.2443
24443W        W55659  23.104  19.948   2.604  0.0034 -0.4620  0.1643
24444W        W55660  25.676  24.832   8.324 -0.2641 -0.0158  0.0342
24445W        W55661   4.391   6.631   8.492 -0.2958  0.1010  0.1630
24446W        W55662  15.671   3.678   8.980  0.1848  0.0230  0.0046
24447W        W55663   5.164  27.149   9.019  0.0427  0.2311 -0.1528
24448W        W55664  21.981  22.192   8.863 -0.0255  0.2279 -0.0723
24449W        W55665  13.130  26.596   9.574 -0.3493  0.2399 -0.0494
24450W        W55666  18.621  10.115   6.947 -0.0024 -0.0373  0.0988
24451W        W55667   3.362  23.360   0.225 -0.2091 -0.1368  0.0339
24452W        W55668  13.087  21.784   8.480  0.1595 -0.2052  0.2544
24453W        W55669   0.925   0.425   2.135  0.3752 -0.0717  0.1021
24454W        W55670   5.929  21.509   1.825 -0.0254  0.0209 -0.1681
24455W        W55671   2.367  15.637   0.814  0.0331  0.0230  0.1245
24456W        W55672   6.870  13.929   0.785  0.1593  0.0988 -0.0859
24457W        W55673  24.146  25.318   8.491  0.2035  0.0265  0.3133
24458W        W55674   3.036  20.043   3.073  0.3402 -0.0240  0.0890
24459W        W55675   6.821   9.636   1.171  0.1346  0.0268 -0.3725
24460W        W55676  18.278   6.285   7.837  0.0686 -0.0472 -0.1287
24461W        W55677   3.810  24.694   2.960 -0.0350  0.0395  0.2573
24462W        W55678  26.161  10.530   9.653 -0.0065  0.0321  0.1412
24463W        W55679   6.812   7.114   0.198  0.2351 -0.2597 -0.0957
24464W        W55680  24.680  27.123   3.142  0.0296  0.1664 -0.1828
24465W        W55681   1.735   8.828   0.353 -0.3951 -0.0862 -0.3851
24466W        W55682  22.862  15.983   1.609 -0.1044 -0.0310  0.1740
24467W        W55683  15.172  10.215   9.042 -0.0003 -0.1557 -0.2275
24468W        W55684   3.091  10.386   9.184 -0.3475 -0.0399  0.2718
24469W        W55685   7.605  19.817   8.318  0.0903 -0.0515 -0.4123
24470W        W55686   9.941   3.256  10.083 -0.0074  0.2765 -0.0963
24471W        W55687   7.625  14.858  10.343  0.1011 -0.0546 -0.1816
24472W        W55688   8.061  24.197   0.446  0.0812 -0.3466  0.1150
24473W        W55689  20.468  12.626   1.562  0.1511  0.0341 -0.1214
24474W        W55690   1.255   0.814   0.415  0.0281  0.0815  0.1217
24475W        W55691  18.572  15.515   2.601  0.1386  0.0772 -0.2473
24476W        W55692   3.834  12.859   2.471  0.5248 -0.2105  0.0964
24477W        W55693  21.211  18.335   7.079 -0.0827 -0.1734 -0.0295
24478W        W55694   3.630  18.088   0.952  0.0693 -0.0094  0.0874
24479W        W55695  10.760  18.843   7.949  0.1790 -0.0291  0.3470
24480W        W55696  14.888   7.708   7.633 -0.1572 -0.1526 -0.2121
24481W        W55697  23.842   0.914  10.120  0.2118  0.2058 -0.0650
24482W        W55698  14.370  14.525   7.926 -0.2272 -0.1728  0.3012
24483W        W55699   7.201  26.594   0.599 -0.1377  0.3588 -0.0198
24484W        W55700   9.104   1.858   8.731 -0.1727  0.1129  0.0919
24485W        W55701  19.113  12.224   0.529 -0.1931  0.4047  0.1467
24486W        W55702   1.013   0.050   8.524  0.4258 -0.3509 -0.2340
24487W        W55703  17.693   5.247   7.278 -0.0589  0.0024 -0.1008
24488W        W55704  27.013   7.199   1.402  0.1496  0.0305  0.0745
24489W        W55705  14.868   9.363   2.887  0.0798 -0.3370  0.1638
24490W        W55706   3.291  18.016   2.087  0.0641 -0.0193 -0.0260
24491W        W55707  17.934  14.499   7.929 -0.1892 -0.2017  0.0179
24492W        W55708   9.608  26.914   2.640  0.0119 -0.0383  0.2335
24493W        W55709   1.749   7.859   1.913 -0.0169 -0.0953  0.2726
24494W        W55710   0.542   6.244   9.627  0.2347 -0.3346 -0.2347
24495W        W55711  19.481   5.474   1.118 -0.0244 -0.0282 -0.0920
24496W        W55712  24.398  20.898   2.204  0.2665  0.0683  0.0037
24497W        W55713  27.523  24.359   7.908 -0.1923  0.3634 -0.0184
24498W        W55714   9.127   1.358   9.723 -0.4225  0.1615  0.0646
24499W        W55715  18.967  16.833   1.472 -0.0904 -0.1183  0.0601
24500W        W55716   0.599  15.417   9.960  0.2659 -0.1274 -0.0604
24501W        W55717  19.583  17.855   8.969  0.1045  0.1462 -0.0680
24502W        W55718  19.929  18.231  10.065  0.2710  0.0932  0.0530
24503W        W55719   2.782  10.782   2.909  0.2464 -0.1131 -0.0130
24504W        W55720  19.228  26.042   3.708 -0.0789 -0.0119 -0.2495
24505W        W55721  21.431   8.457   0.331  0.2391  0.0396  0.2462
24506W        W55722   0.436  10.063   1.403  0.1233  0.0561  0.0830
24507W        W55723   4.792  26.670   8.221 -0.2418 -0.0493 -0.1760
24508W        W55724  13.201  10.421   3.148 -0.0398  0.2011  0.2733
24509W        W55725  20.427  22.630   9.690 -0.2786  0.0153  0.0854
24510W        W55726  26.549   4.936   8.099  0.1628 -0.2129 -0.0104
24511W        W55727   5.005  12.611   0.754 -0.1643 -0.1946 -0.2171
24512W        W55728   4.132  16.658  10.257 -0.4466 -0.0030  0.2687
24513W        W55729  14.812  19.144   7.419  0.1122  0.0364 -0.0428
24514W        W55730  18.439  20.073   7.697 -0.0781 -0.1221  0.1501
24515W        W55731   5.633   3.125   1.850  0.0761  0.2069  0.2591
24516W        W55732   3.230  11.538   2.853 -0.1116 -0.1461  0.1318
24517W        W55733  22.519  25.131   2.215  0.2316  0.1601 -0.1492
24518W        W55734  25.987  20.841   0.451  0.2478 -0.0259 -0.2756
24519W        W55735  12.473   7.807   3.148  0.0355 -0.0301  0.3242
24520W        W55736   5.570  13.692   1.163  0.0120  0.1217  0.2511
24521W        W55737  20.465  27.456   1.021  0.1592  0.0617  0.3492
24522W        W55738   1.535   4.900   9.915 -0.1911 -0.1817 -0.0083
24523W        W55739   2.432  14.935   2.476 -0.2228 -0.0645 -0.0963
24524W        W55740  20.597   8.384   1.025  0.0847  0.2878 -0.1781
24525W        W55741  15.698  25.094   1.438 -0.1906 -0.0015  0.0215
24526W        W55742  22.096  11.792   1.450  0.1731 -0.3029  0.0795
24527W        W55743  23.429  12.590   2.768  0.1108  0.1252  0.2987
24528W        W55744  10.528  21.745   7.560  0.0329 -0.0332 -0.1965
24529W        W55745  22.815   1.983   3.304 -0.0714  0.0971 -0.1993
24530W        W55746  15.751  26.789   8.532 -0.0358 -0.3082  0.1896
24531W        W55747  24.678  12.858   2.531  0.1825 -0.0362 -0.1353
24532W        W55748  14.939  19.069   9.407  0.2516 -0.0441 -0.1703
24533W        W55749  26.294   5.044   9.837 -0.0166 -0.0412 -0.3140
24534W        W55750  22.239   9.971   9.826  0.1600 -0.1572  0.2437
24535W        W55751  27.243  14.510   0.263 -0.0738  0.0818 -0.3927
24536W        W55752  26.351  17.208   2.922 -0.1697  0.1302  0.1521
24537W        W55753   0.577   8.807  10.318  0.1678  0.1434  0.0419
24538W        W55754  17.680   9.075  10.439  0.1648  0.0006 -0.0030
24539W        W55755  20.140   3.202  10.329 -0.0821  0.3468  0.0226
24540W        W55756  18.861  18.182   1.090  0.2025 -0.0881  0.0833
24541W        W55757  21.924  12.327   7.745 -0.0254  0.0703  0.0868
24542W        W55758  15.423   7.143   1.565 -0.1265  0.0353  0.1446
24543W        W55759   3.317   2.543   3.469 -0.0167  0.2289 -0.0750
24544W        W55760   3.867  12.546   7.675  0.1281 -0.0254  0.3010
24545W        W55761   0.183  18.463  10.258  0.0220  0.0769 -0.0552
24546W        W55762   2.713  26.974   1.870  0.0802 -0.0057 -0.1055
24547W        W55763   6.064  19.653   1.965  0.1666  0.0600 -0.3979
24548W        W55764  15.222  22.719   1.401 -0.2057 -0.1965  0.0434
24549W        W55765   3.983   5.996  10.504  0.0212 -0.2262 -0.3568
24550W        W55766  17.190  21.113   8.309  0.1454 -0.1036  0.1678
24551W        W55767  11.775   1.888   3.408 -0.2106 -0.2004  0.2253
24552W        W55768  12.972  20.346   8.855  0.0617 -0.0960  0.1147
24553W        W55769  26.642  12.435   0.533  0.0581 -0.0173  0.2812
24554W        W55770   7.646  24.217   2.220  0.0681 -0.2312 -0.0075
24555W        W55771  21.956  25.534   9.901  0.0228  0.1429 -0.2032
24556W        W55772  26.778  20.709   8.610 -0.0587 -0.0714 -0.0691
24557W        W55773  22.265   7.257   8.939 -0.0704 -0.0687  0.0837
24558W        W55774  27.444   7.962   9.541  0.1030 -0.1545  0.2944
24559W        W55775  19.504  16.826   0.159 -0.1247 -0.1220  0.2367
24560W        W55776  19.665   6.658   2.698 -0.1137 -0.3576  0.2132
24561W        W55777   4.958  26.238  10.068  0.0400  0.1276  0.1901
24562W        W55778   6.357  14.880   1.142  0.4220  0.2310  0.3606
24563W        W55779   3.393   5.363   3.643  0.0130 -0.0214  0.1730
24564W        W55780  15.337   0.845   3.025 -0.0098  0.2225 -0.4021
24565W        W55781  17.150  21.647   0.245  0.0314  0.0816 -0.0452
24566W        W55782   4.294   4.382   2.785  0.0808 -0.1264 -0.0146
24567W        W55783  14.730   9.121   0.159  0.1051  0.1227  0.3487
24568W        W55784  21.656  13.992   0.433  0.2382 -0.1582 -0.0933
24569W        W55785   0.855   7.150   1.033 -0.0731  0.0208 -0.1452
24570W        W55786   2.845  19.107   8.101 -0.0522  0.0812 -0.2650
24571W        W55787   8.541  23.434   9.955  0.0222 -0.4084 -0.2320
24572W        W55788  24.165  12.443   1.941  0.1239 -0.0671  0.1596
24573W        W55789   8.961  23.448   1.907 -0.0341  0.1053  0.0942
24574W        W55790  24.903  16.115   0.071 -0.2678  0.0494 -0.2226
24575W        W55791  18.562   7.564  10.230 -0.2683 -0.0461 -0.1061
24576W        W55792  26.436  17.095   2.457  0.0905  0.0386  0.0803
24577W        W55793  17.345  10.235   1.615 -0.2800  0.2506  0.2124
24578W        W55794  16.730  22.660   1.713  0.0482 -0.1160  0.2330
24579W        W55795  14.603  26.447   1.917 -0.0742 -0.0407  0.1914
24580W        W55796  22.328  17.891   7.820 -0.3558  0.0004 -0.1999
24581W        W55797   7.191  19.599   9.302  0.0186  0.0314  0.4855
24582W        W55798   6.188  13.087   8.861 -0.0903 -0.0871  0.1217
24583W        W55799  13.444  18.744   0.942  0.4341 -0.2378 -0.0362
24584W        W55800  11.853  16.994   1.407  0.0606 -0.0891  0.0898
24585W        W55801   7.219   5.569   3.320 -0.1258 -0.0300 -0.2610
24586W        W55802  14.118   7.115   0.275  0.1303  0.2636 -0.4849
24587W        W55803   8.198  14.628   2.607 -0.1168  0.1025  0.0166
24588W        W55804   0.977   0.863   2.474 -0.0058  0.1067 -0.0625
24589W        W55805  14.009  15.587   9.676 -0.3181  0.1906  0.1950
24590W        W55806  23.607  16.395   1.350  0.0795 -0.0225  0.0013
24591W        W55807   6.528  10.265   8.577  0.2103 -0.2606 -0.0767
24592W        W55808   2.377  21.982   9.300 -0.2088 -0.0420 -0.1910
24593W        W55809  24.853  18.435   2.954  0.2770  0.0886 -0.3795
24594W        W55810  27.132   4.462   9.200  0.0055 -0.1695 -0.0418
24595W        W55811   5.534   4.072   8.140 -0.0326 -0.2093 -0.0519
24596W        W55812  19.468  26.699   3.060  0.3175  0.0614  0.2863
24597W        W55813   0.993   4.740   7.644 -0.0204  0.1066  0.0369
24598W        W55814  22.682   6.394   3.567 -0.4466 -0.1129  0.4513
24599W        W55815   8.289   9.971   1.340  0.1835 -0.0975 -0.1703
24600W        W55816  14.650  20.069   9.751 -0.0964 -0.0477  0.1359
24601W        W55817  18.817  20.706   8.862 -0.1798  0.0574  0.4735
24602W        W55818   8.337  25.350   8.953 -0.0059  0.0917  0.1152
24603W        W55819   2.851  23.610   1.964 -0.2629 -0.1535  0.1436
24604W        W55820  12.093  12.620   0.957 -0.0224  0.4208  0.1761
24605W        W55821   8.673  21.754   9.826 -0.1979  0.1271 -0.3470
24606W        W55822   4.446  18.041   8.888  0.1440  0.0706 -0.6919
24607W        W55823  19.960  18.362   2.738  0.2387 -0.1327 -0.0913
24608W        W55824   1.422  18.879   0.083 -0.2197 -0.4405 -0.1773
24609W        W55825   4.343   2.820  10.540 -0.0587 -0.0371 -0.1012
24610W        W55826   8.685   3.512  10.484 -0.2003 -0.1131  0.0316
24611W        W55827  10.676  12.790   9.384 -0.1735 -0.1636 -0.1230
24612W        W55828  19.005  17.149   9.952  0.0424  0.0392  0.0428
24613W        W55829  19.942  14.114   1.536  0.0002  0.0182  0.0115
24614W        W55830  12.595  26.297   8.825  0.2679  0.0394 -0.3749
24615W        W55831  21.610   7.077   0.080 -0.1532 -0.0750 -0.2789
24616W        W55832  23.557  25.369   0.609  0.1976 -0.3902 -0.0473
24617W        W55833  16.581  17.908   0.894  0.2501 -0.0255  0.0899
24618W        W55834  24.645  11.160   0.506  0.0481  0.1129  0.0492
24619W        W55835   1.715  12.992   2.190  0.1902  0.1310  0.1476
24620W        W55836  24.603  14.257   1.134 -0.0756 -0.2002 -0.1185
24621W        W55837  25.989  14.855   9.441 -0.3167  0.1584 -0.0785
24622W        W55838   7.499  15.971   2.774 -0.0064 -0.2873 -0.2440
24623W        W55839  19.298  22.547   1.281  0.0741  0.0690  0.0091
24624W        W55840  24.051  19.569   3.573  0.0504  0.0396  0.1918
24625W        W55841  13.609  22.254   8.785 -0.1495 -0.0417 -0.2430
24626W        W55842  16.014  25.761   1.492 -0.0852  0.1774  0.3221
24627W        W55843   5.529  15.967   1.827  0.1577 -0.1188 -0.2070
24628W        W55844  25.343   2.376   9.610  0.1118  0.1342  0.1650
24629W        W55845   4.784  14.552   8.851  0.0702 -0.0808 -0.0252
24630W        W55846   2.296  24.883   9.999  0.2509 -0.1591 -0.0327
24631W        W55847  11.497  22.780   3.149  0.3826 -0.0144  0.2056
24632W        W55848  12.863   0.228   7.951 -0.0588  0.2721  0.1548
24633W        W55849  20.327   5.407   2.762 -0.0650 -0.0272  0.3210
24634W        W55850  19.489   4.957  10.454 -0.0984 -0.1741 -0.0943
24635W        W55851  20.122  21.403   1.614  0.1612  0.0580  0.2406
24636W        W55852   9.301  13.046   0.436 -0.0882  0.0151 -0.1496
24637W        W55853  27.106   2.851   8.070 -0.0769 -0.3077  0.1987
24638W        W55854  11.294   8.523   8.394  0.0042  0.3686 -0.0640
24639W        W55855  12.471  27.271   9.076  0.0103 -0.2501 -0.1948
24640W        W55856  15.995   3.616   1.995 -0.0467 -0.1101 -0.0439
24641W        W55857  16.203  19.614  10.511 -0.2308  0.0478  0.0225
24642W        W55858  13.259  12.307   8.343 -0.3175 -0.0262 -0.0954
24643W        W55859   6.266   5.038   9.578 -0.1444 -0.2435 -0.2719
24644W        W55860   6.223  15.935   1.292  0.0909  0.0102 -0.0909
24645W        W55861   0.785   2.553   1.874 -0.0301  0.2677 -0.0106
24646W        W55862   9.024  17.166   9.973  0.2455  0.1601 -0.1478
24647W        W55863   7.356  19.901   1.130 -0.1843 -0.3095 -0.2013
24648W        W55864   1.691  10.750   1.783  0.0172 -0.0245  0.0276
24649W        W55865  13.740  16.254   2.576  0.2586 -0.1429  0.0325
24650W        W55866  21.902   7.554   2.129 -0.0386 -0.0986 -0.1350
24651W        W55867  15.696  10.146   0.972 -0.3635 -0.0131 -0.1261
24652W        W55868   7.739   5.793   7.757  0.0870  0.0418 -0.1457
24653W        W55869   6.496  25.420   3.279 -0.0322 -0.0218 -0.2016
24654W        W55870  12.661  22.637   8.937  0.0814  0.0688 -0.0898
24655W        W55871  20.108   2.473   3.614  0.1952 -0.0406 -0.1987
24656W        W55872   7.874   4.424   2.823 -0.2703 -0.0598 -0.0819
24657W        W55873   2.317  21.961  10.438  0.0563 -0.0832  0.0809
24658W        W55874   6.336  10.829   0.586 -0.2190 -0.2137  0.1369
24659W        W55875  18.845   2.618  10.043  0.0283 -0.0983 -0.1730
24660W        W55876  13.069  22.918   1.934  0.0804  0.0371 -0.0376
24661W        W55877  23.430  15.586   7.323 -0.2282 -0.1894  0.0907
24662W        W55878  17.498  26.852   1.780 -0.0015  0.0388 -0.2519
24663W        W55879  17.350   3.016   1.925 -0.3858 -0.0388 -0.0889
24664W        W55880  12.659   6.435   2.535  0.1675 -0.2161  0.0516
24665W        W55881  23.128  11.159   8.791 -0.3265  0.2028 -0.3174
24666W        W55882  11.013  17.958   2.745 -0.1746  0.1025 -0.0370
24667W        W55883  16.409   0.789   1.845  0.1724 -0.1847  0.0308
24668W        W55884  12.769  22.068   1.904  0.0107 -0.0178  0.0587
24669W        W55885   4.890   9.963   9.474  0.2006 -0.1160 -0.1359
24670W        W55886   8.669   9.552   0.380  0.0480  0.1263 -0.2835
24671W        W55887  21.562   1.852   0.344  0.2968  0.2433  0.0801
24672W        W55888  17.321   7.720   1.256  0.0749  0.4890 -0.2952
24673W        W55889  13.299  22.712   0.154 -0.2143 -0.1721 -0.2715
24674W        W55890  18.713  25.687   0.753 -0.1060 -0.1107  0.2035
24675W        W55891  11.612   3.832   0.412 -0.0727 -0.3923 -0.0458
24676W        W55892  22.282   2.860   9.408 -0.4168 -0.1042 -0.0320
24677W        W55893   1.153  16.553   0.663  0.0982 -0.2604 -0.2979
24678W        W55894  23.158  13.314   3.030 -0.3666  0.1878 -0.1095
24679W        W55895  23.645  26.937   1.553  0.2651 -0.2117  0.4147
24680W        W55896  25.614  21.313   3.252  0.3032 -0.1946 -0.2025
24681W        W55897  27.472   6.120   0.128 -0.2665 -0.2563 -0.0312
24682W        W55898   4.833   1.025   2.578  0.0954  0.0942 -0.1937
24683W        W55899   0.107  17.268   8.085  0.0848 -0.0736  0.1118
24684W        W55900  14.728  12.475   0.735  0.4383  0.1443 -0.1389
24685W        W55901   3.981  21.069   0.123 -0.2303  0.1390 -0.0191
24686W        W55902   7.830  20.959   2.194  0.3439  0.0515  0.3233
24687W        W55903  24.631  17.399   1.131 -0.2671 -0.0009  0.3567
24688W        W55904  15.390  14.440  10.115  0.0121  0.1116  0.0214
24689W        W55905   3.871   3.453   3.093  0.2033  0.2046 -0.0955
24690W        W55906  22.814  17.488   1.740  0.0198 -0.2349  0.1461
24691W        W55907   8.269  18.688   0.253  0.4944 -0.0900 -0.0156
24692W        W55908  13.295  14.071   0.029  0.3752 -0.0284  0.1177
24693W        W55909  17.509  16.098   7.547 -0.0830  0.3318  0.0973
24694W        W55910  11.983   6.540  10.214  0.1024  0.0026 -0.5035
24695W        W55911  11.966  26.705   9.439 -0.1329 -0.0935  0.0366
24696W        W55912  16.351  27.501   1.968  0.2539 -0.1572 -0.2510
24697W        W55913  18.566  19.872   9.321  0.3478  0.1810  0.1591
24698W        W55914   5.454   2.592  10.046  0.1180  0.3299  0.0835
24699W        W55915   6.348   8.109  10.040 -0.1905 -0.1025 -0.1118
24700W        W55916  19.427  14.707  10.425  0.0116  0.0818 -0.1262
24701W        W55917  24.120   4.999   9.652  0.0231 -0.2800 -0.1491
24702W        W55918  18.327  13.849   8.308 -0.3926  0.0137 -0.2284
24703W        W55919  19.164   5.570   8.466  0.3888  0.0705  0.0844
24704W        W55920  17.579   7.714   9.503 -0.2441  0.2097 -0.0165
24705W        W55921  16.871  16.036   9.250 -0.2970  0.0644  0.1570
24706W        W55922  12.084   4.240   9.224 -0.2598  0.0312 -0.0942
24707W        W55923   4.614   8.903   8.801 -0.3346 -0.1898 -0.4072
24708W        W55924   1.343  13.092  10.103 -0.0830  0.0429  0.1163
24709W        W55925   6.872  15.775   2.542  0.1693  0.2962  0.1945
24710W        W55926   6.571  15.073  10.077 -0.1213 -0.0439  0.0419
24711W        W55927  20.340  27.330   3.162  0.1898 -0.4500  0.0725
24712W        W55928  16.310  23.179   3.283  0.0640 -0.0277 -0.1153
24713W        W55929  14.293  11.876   8.870 -0.0610 -0.3376  0.0444
24714W        W55930   1.623  18.535   0.396 -0.0801 -0.0890  0.2323
24715W        W55931  13.707   1.747  10.258 -0.0034  0.1462  0.0367
24716W        W55932  15.176  26.768  10.323 -0.1140 -0.2065  0.0441
24717W        W55933  22.834  13.552   9.035 -0.1647 -0.1458 -0.0312
24718W        W55934   6.702   0.152   8.545  0.1871  0.0770 -0.4763
24719W        W55935  18.812  19.463   1.997  0.1041  0.0003 -0.0699
24720W        W55936  23.262   3.691   1.211 -0.1450 -0.0222 -0.0487
24721W        W55937  17.570  23.812   2.758  0.3357 -0.1185  0.0151
24722W        W55938   9.169  24.559   1.207  0.1212 -0.1575  0.0408
24723W        W55939   9.249  11.609   1.286 -0.1466 -0.3041 -0.0720
24724W        W55940  25.751   6.745   9.980 -0.1617  0.0354  0.4144
24725W        W55941   8.693   6.293   7.738 -0.0408  0.2270  0.1205
24726W        W55942   3.484   1.396   0.596  0.1017  0.0609 -0.1138
24727W        W55943   0.433  16.805   1.287 -0.2397  0.0006  0.1260
24728W        W55944   9.273   0.631   0.438 -0.2727 -0.0701 -0.2512
24729W        W55945   6.875  19.700   2.121 -0.0621 -0.1653  0.0284
24730W        W55946  24.747  26.783   0.016  0.1226  0.0823 -0.0631
24731W        W55947   6.614  17.290  10.466  0.0327 -0.0685  0.0824
24732W        W55948  19.359  27.202   3.204  0.1135  0.1020 -0.1321
24733W        W55949   8.908  26.336   1.756  0.0447 -0.0267  0.1698
24734W        W55950  15.614   3.991   8.605  0.0165 -0.1512  0.1532
24735W        W55951  16.535   1.194   0.067 -0.1837 -0.5283 -0.2549
24736W        W55952  19.633  23.334   9.672 -0.0091 -0.1031 -0.2183
24737W        W55953  13.872  10.753   1.458  0.2984  0.0380  0.0573
24738W        W55954   9.964  20.215   1.638 -0.1462  0.2158  0.3057
24739W        W55955   5.708   4.085   1.337  0.0195  0.2591 -0.1510
24740W        W55956   8.431   4.127   2.880 -0.0364 -0.1113  0.3498
24741W        W55957  25.028  24.018   2.165 -0.0034  0.0698 -0.0259
24742W        W55958   4.646  10.735   0.695 -0.0215 -0.0712 -0.1133
24743W        W55959  20.427  15.033   8.251 -0.1251  0.1062  0.1671
24744W        W55960   7.127  10.872  10.008 -0.1819 -0.1067 -0.1572
24745W        W55961  19.256   0.668   0.864 -0.1595  0.1353 -0.3000
24746W        W55962   0.190   5.446   8.344  0.1236  0.0408 -0.2470
24747W        W55963   5.165  10.592   8.107  0.0434  0.2623  0.1236
24748W        W55964  24.001   0.556   9.663 -0.1155 -0.0691  0.4488
24749W        W55965  25.558  15.091   8.460  0.0486  0.1354  0.0656
24750W        W55966   8.115  26.090   8.286  0.1616 -0.6311 -0.0598
24751W        W55967   4.571  16.544   0.581  0.0241  0.2679 -0.0113
24752W        W55968  22.649  18.856   1.257  0.2699  0.0217  0.1148
24753W        W55969  21.340  22.280   2.906 -0.2633 -0.4387 -0.2592
24754W        W55970   3.663   9.662   1.691 -0.0356 -0.1821  0.1351
24755W        W55971  16.708   3.413   8.589  0.1351 -0.0403 -0.0765
24756W        W55972  16.780   8.544   1.364 -0.1373 -0.3180  0.0344
24757W        W55973  16.981   3.768   2.556  0.0446  0.0091 -0.1280
24758W        W55974  11.614   0.447   2.920  0.3265  0.2284  0.0265
24759W        W55975   7.847  10.381   9.077  0.2990 -0.2292  0.3201
24760W        W55976  18.804  12.104   8.535  0.0883  0.0259  0.0284
24761W        W55977  23.645  21.951   8.922  0.0585  0.1545  0.2512
24762W        W55978   7.622  14.440   1.358 -0.3795 -0.0328 -0.3327
24763W        W55979   0.239  15.639   7.497 -0.2411  0.1863 -0.2651
24764W        W55980  16.548   4.879   2.986 -0.0867  0.0729  0.1524
24765W        W55981  10.007  16.862   0.072  0.1381  0.0562 -0.2950
24766W        W55982   1.298  10.655   9.403 -0.2360 -0.1571 -0.4047
24767W        W55983   7.274   7.322   1.409  0.0042  0.5005  0.1454
24768W        W55984   3.298  15.490   8.115  0.0239 -0.0005  0.1194
24769W        W55985   2.324  12.911   7.625  0.0052  0.0606 -0.1427
24770W        W55986  24.955  11.451   3.323 -0.1479 -0.1454 -0.0476
24771W        W55987   3.018  16.690   2.528 -0.0603  0.2478  0.0672
24772W        W55988  19.760   3.401   0.097 -0.1089 -0.3152 -0.0788
24773W        W55989  10.208   4.377   0.543  0.1246  0.1418  0.1586
24774W        W55990  22.738   7.873   1.398  0.0439 -0.2485  0.0288
24775W        W55991   4.997  13.983   8.281 -0.1764 -0.3778  0.0290
24776W        W55992  11.700   7.735   2.536  0.1215 -0.0882 -0.1906
24777W        W55993  24.265   0.095   0.122 -0.0762 -0.0262 -0.2034
24778W        W55994  15.096   8.756   8.913  0.0048  0.3690 -0.0112
24779W        W55995   1.977  21.943   7.458  0.1289 -0.0076  0.2047
24780W        W55996   3.875  24.115  10.104  0.0678 -0.1184  0.3358
24781W        W55997  14.491   6.895   3.697  0.1495  0.0146  0.1933
24782W        W55998  17.199  16.444   2.680  0.1050 -0.1574 -0.1529
24783W        W55999  26.240   1.114   9.266  0.4354 -0.0843  0.1499
24784W        W56000  10.016  24.428   1.533 -0.2096 -0.0453  0.2366
24785W        W56001   4.453  21.908   1.320  0.3541  0.2612  0.6006
24786W        W56002  25.758  25.224   2.896  0.1362 -0.0556  0.1278
24787W        W56003  12.392   3.215  10.273  0.2020 -0.0414 -0.0385
24788W        W56004  21.163   1.431  10.111  0.1735  0.0706  0.0055
24789W        W56005   4.017   6.808   3.514 -0.0148  0.0164  0.0346
24790W        W56006  16.932   6.087   8.160 -0.0811  0.0806  0.0294
24791W        W56007  24.362  15.741   9.157 -0.2661 -0.3206  0.4257
24792W        W56008  14.070  18.109   2.565 -0.2030 -0.2733 -0.0896
24793W        W56009   0.085  12.582   7.479  0.0239 -0.1673 -0.0007
24794W        W56010   0.972   4.882  10.170  0.0620  0.2143  0.0407
24795W        W56011   7.742  10.734   8.788 -0.2318  0.0233 -0.1875
24796W        W56012  26.789  12.021   2.142 -0.0416 -0.0213  0.1880
24797W        W56013  17.516   4.691   1.356  0.2577 -0.0175  0.2316
24798W        W56014  19.515   8.002   7.731 -0.1082 -0.1689  0.2670
24799W        W56015  23.344   8.887   2.491  0.0104 -0.0228  0.2221
24800W        W56016  23.857   0.171   0.547  0.2592 -0.1632 -0.3547
24801W        W56017  26.636  27.252   3.085 -0.1908 -0.1488 -0.0261
24802W        W56018  23.272   2.010   3.040 -0.0266 -0.0771  0.0580
24803W        W56019  20.124  16.196   1.118  0.0368  0.0331  0.0792
24804W        W56020  17.524  25.962   8.744  0.0105 -0.3235 -0.1198
24805W        W56021  13.506  21.710   0.260  0.1138  0.0266 -0.0924
24806W        W56022  14.173  17.134   0.986  0.0969 -0.0568 -0.1392
24807W        W56023  15.721   5.401   1.285 -0.1043  0.2446 -0.3214
24808W        W56024  21.035  11.301   9.878  0.0848 -0.0525 -0.1986
24809W        W56025  18.357   7.649   7.514  0.0846 -0.1704  0.1362
24810W        W56026  19.310   9.611   0.372 -0.1074 -0.2005 -0.1432
24811W        W56027  14.437  26.019   0.230 -0.1153 -0.3224 -0.1356
24812W        W56028  19.243  24.616   9.887  0.0651  0.2258  0.1152
24813W        W56029   8.533  13.820   9.706 -0.0795 -0.2092  0.1072
24814W        W56030  15.650  22.145   2.699  0.0953 -0.1135  0.1790
24815W        W56031   4.570   1.174   3.103 -0.1029  0.0975  0.0468
24816W        W56032  25.205  26.453   1.455 -0.3671  0.3273 -0.0730
24817W        W56033  18.840  21.261   8.066 -0.1540 -0.1118 -0.1462
24818W        W56034   8.140   0.100   7.847  0.1268 -0.2180  0.0016
24819W        W56035   5.861  22.053   2.108  0.1193 -0.3368  0.0693
24820W        W56036   0.566  23.237   9.402 -0.1576  0.0679 -0.0730
24821W        W56037   3.861   1.491  10.484  0.2972  0.1347  0.1656
24822W        W56038  19.860  10.234   8.159  0.0084  0.0703 -0.0928
24823W        W56039  12.187  19.623  10.423 -0.1979  0.0926  0.0409
24824W        W56040   0.469  26.980   0.797  0.1509 -0.0639  0.0258
24825W        W56041   6.901   8.247   2.780  0.3008 -0.1517 -0.1270
24826W        W56042  11.509   2.958   9.916  0.1895 -0.1102  0.0783
24827W        W56043  16.625  23.202   8.039  0.0068  0.2758  0.0905
24828W        W56044  24.242   3.877   4.056  0.0313 -0.1775 -0.1198
24829W        W56045  14.505  15.397   0.013  0.0723 -0.1859  0.2736
24830W        W56046   9.964   6.543   2.648 -0.2281  0.0472 -0.0199
24831W        W56047   3.163   1.477   9.169 -0.4176 -0.2861  0.3377
24832W        W56048  13.823  12.062   8.803 -0.1056 -0.1247 -0.4395
24833W        W56049  11.724   7.147   7.998  0.0681 -0.3256  0.0045
24834W        W56050   3.002   0.017   0.258  0.2124  0.4240  0.0016
24835W        W56051   1.273   4.957   8.526 -0.1690  0.3440  0.0511
24836W        W56052  23.305   3.926   1.690 -0.0083  0.2348  0.1663
24837W        W56053  22.326   9.808   1.776  0.0078  0.1979 -0.2154
24838W        W56054  17.471  15.894   9.177  0.2006  0.1284  0.2190
24839W        W56055  19.282   4.032   0.885  0.2276  0.0635  0.1732
24840W        W56056  21.816   7.489  10.320  0.0703  0.1478 -0.0147
24841W        W56057  13.311   0.707  10.153  0.3675  0.2236 -0.2697
24842W        W56058   7.115  27.187   2.516  0.2261  0.1403  0.1334
24843W        W56059  18.304   3.754   1.879 -0.1216 -0.0255 -0.2921
24844W        W56060   9.141  22.604   8.165 -0.1152  0.1978  0.0635
24845W        W56061  24.840  25.265   9.099 -0.0907 -0.0490 -0.1782
24846W        W56062  23.563  16.623   3.403  0.2606  0.1909 -0.1668
24847W        W56063  26.076  26.883   0.974  0.2563 -0.2246  0.1911
24848W        W56064  14.609  26.798   8.675 -0.3131  0.4921  0.2481
24849W        W56065   8.655  26.672  10.458 -0.2720 -0.1725 -0.0286
24850W        W56066  11.242  18.612   8.344 -0.1595  0.0397  0.5137
24851W        W56067  10.709   0.742   2.469  0.1098 -0.3443 -0.0454
24852W        W56068  22.180  22.156   9.684 -0.0852  0.1019 -0.0695
24853W        W56069  25.444  22.813   7.819 -0.0908  0.0822 -0.2483
24854W        W56070  13.465  23.424   3.710  0.0711  0.0194 -0.0508
24855W        W56071  13.340   5.853  10.371 -0.0852  0.1791 -0.0346
24856W        W56072   9.382  25.021   9.843  0.1201 -0.1689 -0.1677
24857W        W56073   0.002  20.381   2.201 -0.1891 -0.0751  0.4063
24858W        W56074  13.514   2.569   9.363 -0.0269 -0.1264 -0.0772
24859W        W56075  27.311   5.163   1.910 -0.3645  0.0435 -0.0456
24860W        W56076   4.078  17.059   8.656 -0.4723  0.1766  0.1362
24861W        W56077  22.511  27.562   3.555 -0.1906  0.1170 -0.0204
24862W        W56078  12.023  10.002   9.407 -0.1519 -0.1165 -0.0028
24863W        W56079   9.837   8.148   9.156 -0.0085 -0.0502  0.0229
24864W        W56080  14.324   5.474   8.372 -0.0563  0.1786  0.0577
24865W        W56081   4.561   8.982   9.469  0.3336  0.1852 -0.0063
24866W        W56082   8.863   9.775  10.273  0.1549  0.1056  0.0617
24867W        W56083  15.716   7.633   2.324  0.0252  0.0538 -0.0410
24868W        W56084  13.363  10.828   3.389 -0.2934  0.2212  0.0896
24869W        W56085  21.805  15.386   9.905  0.0701  0.0672  0.1901
24870W        W56086  23.975  11.946   8.333 -0.0233 -0.1222  0.1257
24871W        W56087   6.318  23.201   9.299 -0.3155  0.1251 -0.1193
24872W        W56088   3.138  24.232   3.240  0.0841  0.0235  0.0582
24873W        W56089  24.380   4.002   1.749 -0.1426  0.1286  0.3165
24874W        W56090   5.676   8.187   0.125 -0.0414  0.2990  0.1115
24875W        W56091  20.053   8.379   2.250 -0.3722 -0.2120  0.0707
24876W        W56092  10.789   9.127   1.338  0.0465 -0.1273  0.1929
24877W        W56093  22.189  26.357  10.336  0.0424 -0.0084  0.0351
24878W        W56094  19.743  18.163   1.114 -0.0173  0.0599 -0.1246
24879W        W56095  24.819  16.740   7.910 -0.0881  0.0504 -0.1136
24880W        W56096   2.765  20.274   3.494  0.1806  0.1081 -0.1178
24881W        W56097  11.978  11.815   1.454 -0.1397 -0.0088  0.2922
24882W        W56098  14.220  10.468   4.006 -0.3307  0.0789 -0.1270
24883W        W56099  11.991   1.279   1.001  0.0187  0.2843  0.1506
24884W        W56100   5.143  12.192   2.810 -0.2710 -0.2268  0.3025
24885W        W56101  20.022  11.887   7.125 -0.0589  0.1141  0.0158
24886W        W56102  22.436  16.121   8.066  0.0349 -0.1216  0.0926
24887W        W56103   4.584   8.948   8.228  0.0658 -0.2301  0.3267
24888W        W56104   8.306  10.571   8.851  0.0992 -0.1938 -0.1667
24889W        W56105  10.392   2.198   9.151  0.0806  0.1690 -0.0965
24890W        W56106   0.479   3.536   2.775  0.1151  0.1800  0.1816
24891W        W56107   6.776  12.538   8.144 -0.1465  0.0794  0.1417
24892W        W56108  14.244  23.682   1.872 -0.0661 -0.2422 -0.2171
24893W        W56109   1.012   2.467   0.050 -0.0485  0.0793 -0.1157
24894W        W56110  15.678  18.623   9.915 -0.1659 -0.0430  0.0011
24895W        W56111  25.661  10.858   2.725  0.1476  0.3326 -0.0770
24896W        W56112  25.583  25.132   1.561 -0.0590 -0.1622  0.5623
24897W        W56113  19.503   8.101   2.990 -0.0716  0.0626  0.2000
24898W        W56114  25.226  18.772   1.157 -0.0345  0.0039  0.1017
24899W        W56115  27.024  13.110   3.115 -0.2251 -0.2623  0.2465
24900W        W56116  25.227  27.588   7.970  0.2010 -0.0886  0.0457
24901W        W56117   0.446   5.529  10.486  0.3127 -0.0249 -0.2552
24902W        W56118  16.190   7.030   7.725 -0.2559 -0.3906 -0.0545
24903W        W56119   8.909   1.559  10.314 -0.4170  0.0635 -0.0637
24904W        W56120  22.571  26.748   7.726 -0.0143  0.2093  0.0030
24905W        W56121  15.207  11.552   7.876 -0.0987  0.0294  0.2346
24906W        W56122  27.026  13.597   3.103 -0.0725 -0.0755 -0.0197
24907W        W56123  22.659  21.362   0.902  0.1871 -0.4115  0.2360
24908W        W56124  26.815   2.738   9.200  0.1586 -0.3119 -0.2111
24909W        W56125   7.994  10.405   0.047 -0.0820 -0.2006 -0.0470
24910W        W56126   3.186  12.884   8.231  0.0780 -0.0500  0.1011
24911W        W56127  20.971  18.058  10.259  0.0816 -0.1210 -0.0332
24912W        W56128  22.087   4.509   1.928 -0.1152 -0.2130  0.3460
24913W        W56129  23.534  19.840   7.812 -0.0657 -0.1384 -0.3503
24914W        W56130  26.178   4.369   2.887  0.0795  0.0675 -0.2608
24915W        W56131  13.382   0.399   1.584 -0.0986  0.2276  0.0356
24916W        W56132  21.830  26.667   8.977 -0.0380 -0.0547  0.1550
24917W        W56133   6.515   9.143   7.748 -0.0083  0.0352  0.0279
24918W        W56134  14.474   7.586   9.031  0.0869 -0.4122 -0.0609
24919W        W56135  19.768  18.701   8.161  0.1929 -0.1646 -0.1392
24920W        W56136  12.289   7.514   1.211  0.1779  0.0110 -0.0087
24921W        W56137   9.635   5.816   9.264  0.0242 -0.0307 -0.2632
24922W        W56138   9.895   5.175  10.324  0.0223 -0.0538 -0.1688
24923W        W56139  14.094  10.129   8.432 -0.0824  0.1705 -0.4519
24924W        W56140   6.634  18.656  10.216  0.0740 -0.2615  0.0904
24925W        W56141  14.209   4.814   1.730 -0.3957 -0.2155 -0.1216
24926W        W56142  15.384  18.925   1.641 -0.1185 -0.0259  0.2400
24927W        W56143   4.285  24.592   2.588 -0.1222 -0.0055 -0.0985
24928W        W56144  23.908  13.767   3.795  0.0288 -0.0282 -0.1259
24929W        W56145  13.228  20.634   1.054  0.0576 -0.0753  0.2044
24930W        W56146   2.232  23.640   0.867  0.1343  0.1921  0.2064
24931W        W56147   5.193  25.873   1.319  0.1577  0.1702  0.1746
24932W        W56148  21.217  20.759   8.380 -0.1385 -0.1749 -0.2294
24933W        W56149  25.086  27.304   7.566 -0.2199 -0.0848  0.1588
24934W        W56150  17.725   0.783   0.585 -0.0441  0.2487 -0.0204
24935W        W56151  16.637  18.022   8.267  0.0811 -0.2500  0.2245
24936W        W56152  12.980   2.840   2.411 -0.2203 -0.0243  0.2222
24937W        W56153   5.903  16.625  10.148 -0.0192 -0.1575  0.0684
24938W        W56154  21.155   3.125   1.208 -0.0255 -0.1099 -0.0265
24939W        W56155  13.003  13.234   8.571 -0.1026 -0.0384  0.2221
24940W        W56156  24.561   4.569   8.008  0.2427  0.1989  0.0248
24941W        W56157   6.408  25.781   2.927  0.1308  0.0497  0.0591
24942W        W56158  24.620   4.502  10.404  0.0983  0.0146 -0.0063
24943W        W56159   3.746   4.169   0.068  0.1585  0.1652  0.2007
24944W        W56160  24.557  16.053   0.476 -0.1439 -0.0925  0.1596
24945W        W56161   8.493   3.155   2.396 -0.0083  0.0985  0.0015
24946W        W56162  19.478  19.275   7.051 -0.1512 -0.1480  0.0231
24947W        W56163  24.883  17.236   2.500  0.0801 -0.1654  0.0769
24948W        W56164   1.925  17.663  10.149  0.0583  0.0887  0.0344
24949W        W56165   5.653   3.394   9.393  0.1673  0.0822 -0.0387
24950W        W56166  21.170  26.928   2.834 -0.0316 -0.1309 -0.0142
24951W        W56167   1.596   6.629  10.106 -0.1077 -0.0013 -0.1137
24952W        W56168  25.893   2.670   0.283  0.1721  0.0161 -0.1877
24953W        W56169  27.083   5.500   9.481 -0.2065 -0.1251 -0.0360
24954W        W56170  17.326  23.179   9.436  0.2350  0.3799  0.3343
24955W        W56171   1.949   0.386   8.657 -0.0712  0.1250 -0.1092
24956W        W56172  26.665  26.158   1.338  0.1326  0.1508 -0.0300
24957W        W56173  26.822   4.238   3.242 -0.1470  0.0228  0.2539
24958W        W56174  22.668  17.371   9.638  0.1743  0.5911  0.3113
24959W        W56175   3.417  21.072   9.315 -0.0769 -0.0683  0.2450
24960W        W56176  14.932   4.331   9.604 -0.0179  0.0869 -0.0993
24961W        W56177  23.586  22.116   1.774  0.1806  0.1405  0.0415
24962W        W56178  12.187  20.996   0.000  0.1336 -0.0276  0.1640
24963W        W56179   7.257  16.555   9.950 -0.0707 -0.2436  0.0757
24964W        W56180  26.891   8.159   0.937 -0.1374  0.1738  0.0099
24965W        W56181  21.417   7.906   1.047 -0.2111 -0.3063 -0.0347
24966W        W56182  15.302   1.330   2.047  0.1443  0.3560 -0.2240
24967W        W56183  13.058   4.995   0.646  0.0579 -0.0845  0.0561
24968W        W56184  13.790   9.548   9.790  0.0848 -0.3380 -0.0576
24969W        W56185   3.404   7.150   9.880 -0.0700  0.1019 -0.0038
24970W        W56186   3.801  23.023   1.816  0.1273  0.0236 -0.1331
24971W        W56187  12.325  18.046   2.596  0.0730  0.1173  0.2121
24972W        W56188  15.638  25.141   3.574 -0.1759 -0.3234  0.2863
24973W        W56189  24.863   6.230   7.770  0.4117 -0.2214 -0.0159
24974W        W56190  23.556  26.004  10.320 -0.0942 -0.0309 -0.0805
24975W        W56191  11.421  21.549  10.284  0.1351  0.1193 -0.1036
24976W        W56192  19.519  15.163   8.582 -0.0872  0.1949  0.0126
24977W        W56193  20.706  12.124   8.351  0.1276  0.1452 -0.0071
24978W        W56194  16.325  14.107   3.075 -0.1473  0.1969  0.0029
24979W        W56195   0.210   0.872   2.494 -0.1386 -0.6121 -0.0716
24980W        W56196   3.943  22.283   9.034 -0.3146 -0.0179  0.1858
24981W        W56197  12.602   8.254   1.671  0.1850  0.0872 -0.1408
24982W        W56198  21.066  12.119   0.967 -0.0848 -0.1329 -0.0488
24983W        W56199  14.640  12.369   9.428 -0.0563 -0.2897 -0.0923
24984W        W56200  13.832   1.223   2.337 -0.2409 -0.2181 -0.0431
24985W        W56201  13.841   0.990  10.210  0.1780  0.1128 -0.1256
24986W        W56202  17.340  25.844   9.176  0.4898 -0.1734 -0.2662
24987W        W56203  18.160  22.256   9.667  0.1671  0.6457 -0.1262
24988W        W56204  20.810   8.536   8.335  0.0123 -0.0696 -0.0537
24989W        W56205   3.332  27.395   9.650 -0.0643 -0.0387 -0.1681
24990W        W56206   5.187  22.663   3.518  0.1420  0.1013 -0.3499
24991W        W56207  14.562  17.277   2.099 -0.2440 -0.0436  0.1682
24992W        W56208  22.001  22.158   7.508  0.1105  0.1701 -0.1567
24993W        W56209   2.554   9.754  10.426  0.1414 -0.2596  0.2322
24994W        W56210  27.081  25.828  10.263  0.2824  0.3462  0.0516
24995W        W56211   4.083  13.758   9.784  0.1025 -0.1473 -0.0690
24996W        W56212  10.998   9.336   0.139 -0.1282  0.0633 -0.1595
24997W        W56213  12.228  11.134   8.196 -0.0224  0.1161 -0.4376
24998W        W56214  27.260  17.377   7.460  0.1937  0.0394 -0.1319
24999W        W56215  26.185   1.879   1.348  0.0599 -0.0346 -0.1359
25000W        W56216  19.794  11.090   0.033 -0.1224  0.0372 -0.0532
25001W        W56217   3.500   5.357   1.045  0.1580 -0.2995  0.0058
25002W        W56218  27.243  21.723   0.177 -0.0915  0.1161 -0.1912
25003W        W56219  13.629  19.770   9.684 -0.2361  0.0105  0.2433
25004W        W56220  26.289  18.872   9.399 -0.1910 -0.2632  0.0042
25005W        W56221  24.881  19.088   9.146 -0.0156 -0.0093  0.2004
25006W        W56222   5.882  18.775   3.093 -0.0077  0.0742 -0.1868
25007W        W56223  26.063  14.435   7.519  0.1446  0.1035  0.1703
25008W        W56224   2.126   9.498   9.059  0.1366 -0.2088  0.0189
25009W        W56225   5.150   7.059   8.470 -0.0396 -0.0714 -0.1599
25010W        W56226   9.613   0.049   2.104  0.0366  0.1674 -0.0839
25011W        W56227  27.477  25.218   0.409 -0.0102 -0.0891  0.0496
25012W        W56228  16.382  11.158   3.063  0.1814  0.2383  0.0111
25013W        W56229   4.085  17.816   2.411  0.0243  0.2537  0.0619
25014W        W56230  14.843   8.094   1.444 -0.1297  0.2590 -0.0182
25015W        W56231   7.601   8.583   9.589  0.3651  0.0930  0.2668
25016W        W56232  15.761  21.698   2.530 -0.0319 -0.2649 -0.0296
25017W        W56233  26.206  20.129   8.981 -0.0542 -0.0425  0.1315
25018W        W56234  11.085  23.477   0.483 -0.2407  0.1209 -0.3645
25019W        W56235   8.467   5.254   8.780 -0.0475  0.1607  0.0076
25020W        W56236   3.205  17.087   0.224 -0.0357 -0.1112  0.0123
25021W        W56237   6.954  14.872   7.868  0.2626  0.1928 -0.0391
25022W        W56238   1.220  22.656   0.363 -0.0129 -0.0529 -0.0949
25023W        W56239  23.417  17.302  10.471 -0.1649  0.0978 -0.2236
25024W        W56240  14.690  15.044   9.241 -0.0149  0.3004 -0.3330
25025W        W56241  12.276   0.959   2.922 -0.3409 -0.2466  0.2617
25026W        W56242  21.552  26.117   2.773 -0.1811  0.0858 -0.0068
25027W        W56243  19.065   2.185   8.509 -0.0753  0.1072 -0.2208
25028W        W56244  19.298   2.974   7.994 -0.0178 -0.1305  0.0904
25029W        W56245  15.369   1.161   2.639  0.0334 -0.2587 -0.2912
25030W        W56246   7.373  17.123   9.561  0.0286 -0.1973 -0.0869
25031W        W56247   4.388  17.066  10.420 -0.0509 -0.3439  0.2779
25032W        W56248  22.699  13.158   0.598  0.0468  0.6112  0.0627
25033W        W56249   0.047  22.467   2.959 -0.1899 -0.0136  0.2652
25034W        W56250   2.599  10.065   1.815  0.2665  0.2899  0.0450
25035W        W56251   0.649  18.075   9.441  0.0584 -0.1260  0.0819
25036W        W56252  15.987  23.297   1.453  0.1458  0.1059 -0.0123
25037W        W56253   5.671  13.193  10.346 -0.2334 -0.1754  0.0149
25038W        W56254   4.759  24.946   2.576 -0.3858  0.0369 -0.3418
25039W        W56255   9.461  25.191   7.673 -0.0892 -0.3711  0.1905
25040W        W56256  22.880  22.940   2.747 -0.1376  0.0184  0.2851
25041W        W56257   8.880   6.013   3.250  0.2896  0.2357  0.0090
25042W        W56258   3.314   9.311   0.333 -0.1547  0.3033 -0.1750
25043W        W56259  18.491  16.218   3.201 -0.0932  0.0871 -0.1184
25044W        W56260  21.581  16.288   7.104  0.0349  0.0166  0.1048
25045W        W56261  20.065  26.258   9.908  0.1121 -0.0893 -0.0553
25046W        W56262  17.794   2.773   1.030 -0.1173  0.2141  0.3084
25047W        W56263   8.920  23.008   8.249  0.1823 -0.1515 -0.1284
25048W        W56264  24.385   9.622   7.878  0.2101 -0.0181  0.0705
25049W        W56265  10.784  20.395   8.077 -0.2547 -0.0844  0.1216
25050W        W56266  26.604   6.282   0.409  0.0755  0.0698 -0.0282
25051W        W56267   2.003  16.483   9.691 -0.1058 -0.1254 -0.0807
25052W        W56268  26.239   1.862   2.238  0.0133 -0.2525 -0.0891
25053W        W56269  24.278  16.825   9.197  0.2214  0.0430  0.0269
25054W        W56270  15.946  12.841   7.554 -0.0208  0.1164 -0.2454
25055W        W56271  18.462  26.544   2.890  0.2001 -0.0703  0.2174
25056W        W56272  10.103  17.685   1.613 -0.0085 -0.0158  0.1381
25057W        W56273  25.340  15.724   8.797 -0.0869 -0.0428 -0.0429
25058W        W56274  20.844  19.179   0.211 -0.3560  0.0129 -0.0963
25059W        W56275  16.527  12.347   9.077  0.1607 -0.3372 -0.1894
25060W        W56276  13.532   0.728   3.509 -0.1789  0.1060 -0.0284
25061W        W56277   7.782  20.921   1.490 -0.4319 -0.3827 -0.1901
25062W        W56278  10.108  13.136   7.784 -0.0942  0.1646  0.0597
25063W        W56279   0.903  26.728   0.380  0.0460 -0.1568 -0.0888
25064W        W56280   5.813  12.413   2.084  0.0052 -0.0704  0.0489
25065W        W56281  27.023   3.244   2.465  0.0415  0.1765  0.3932
25066W        W56282  13.284  20.128   0.321 -0.0302  0.2610  0.0699
25067W        W56283  19.753   7.068   9.090 -0.2411 -0.0272  0.3601
25068W        W56284   6.612  23.605   8.956  0.0761  0.0253 -0.3793
25069W        W56285  17.914  18.595   0.104  0.1538  0.1149  0.0008
25070W        W56286  12.027   4.167   3.452 -0.3964 -0.2842  0.0274
25071W        W56287  18.871  25.040   2.511  0.2463  0.1120  0.0949
25072W        W56288  22.265  11.181   9.796 -0.4911  0.1940 -0.1844
25073W        W56289  19.913   3.265   9.467  0.0800 -0.0082  0.0911
25074W        W56290   8.363  21.485   1.049 -0.0234 -0.1014 -0.0803
25075W        W56291  14.087  14.399   1.627 -0.2262  0.1387 -0.0835
25076W        W56292  23.460  11.296   2.042 -0.3082  0.1126 -0.3174
25077W        W56293  14.863  24.092   0.429  0.2482  0.1049 -0.1031
25078W        W56294  12.621  15.055   2.833 -0.3560 -0.4234  0.1049
25079W        W56295  25.047  15.373   2.075 -0.5519 -0.0480  0.3060
25080W        W56296  24.842   0.086   8.177  0.0537  0.1271 -0.1546
25081W        W56297  15.326   0.303   8.346  0.0103 -0.1253 -0.3621
25082W        W56298  17.224  14.465   8.743  0.1076  0.0245  0.1509
25083W        W56299  22.620  19.650   8.087 -0.2211 -0.2041  0.1889
25084W        W56300  18.329   0.877   3.119  0.0001  0.2790  0.2027
25085W        W56301  15.202  24.383   1.746 -0.2425 -0.1295 -0.0524
25086W        W56302   9.033   1.883   0.931 -0.0589  0.3322 -0.1357
25087W        W56303  10.161  20.733   2.590  0.1585  0.0434  0.2577
25088W        W56304  21.573  10.884   2.633 -0.0613  0.0471 -0.0473
25089W        W56305  12.500   9.207   2.067  0.2298  0.1241  0.1015
25090W        W56306  17.178  15.717   9.886 -0.1399 -0.1286  0.3060
25091W        W56307  11.737   8.137   9.211 -0.0185  0.2413  0.0096
25092W        W56308   5.740  15.312   0.396  0.1749 -0.0326 -0.0650
25093W        W56309  13.396   9.943   9.627  0.0605  0.1018 -0.0336
25094W        W56310   6.387   3.685   7.886  0.2249 -0.2045  0.0094
25095W        W56311   7.531  13.060   7.761 -0.4996  0.1217 -0.1477
25096W        W56312  13.588   7.350   9.406  0.2065  0.1143  0.2362
25097W        W56313  24.166  16.008   0.765  0.0200  0.0790  0.2493
25098W        W56314  26.927  22.685   0.854 -0.2190  0.0481 -0.0200
25099W        W56315   3.959   1.104   0.240 -0.0444  0.3405 -0.1999
25100W        W56316  10.458  27.379   2.500 -0.1547 -0.2487 -0.0565
25101W        W56317   2.099  20.663   9.662  0.1455 -0.0199 -0.0524
25102W        W56318   6.010  22.913   0.389  0.2240  0.2247 -0.0165
25103W        W56319   8.951  16.963  10.478  0.0043  0.1821 -0.0523
25104W        W56320  19.124  26.831  10.503 -0.2184  0.0416 -0.2204
25105W        W56321   7.130  10.938   2.532 -0.0140  0.1203  0.1335
25106W        W56322   2.311  11.200   8.572  0.2023 -0.0741  0.0262
25107W        W56323  25.830  13.855   1.650  0.1857  0.2532 -0.1777
25108W        W56324  10.011  12.889   1.781  0.2347  0.3475  0.0814
25109W        W56325   7.547  24.190   3.173  0.1559  0.0628  0.1500
25110W        W56326   9.243   1.139  10.217 -0.0330  0.0846 -0.4697
25111W        W56327   3.610  22.875   9.680 -0.2045  0.1015  0.1253
25112W        W56328  19.036   7.714   9.113 -0.1528 -0.6474 -0.3511
25113W        W56329   7.717  16.902   2.440 -0.2061  0.0746  0.3654
25114W        W56330   1.109  20.434   0.679 -0.2359  0.0177 -0.0507
25115W        W56331   3.353   2.778   2.017 -0.1828  0.0007  0.0254
25116W        W56332  18.832  24.372   3.790  0.1644  0.1680  0.3899
25117W        W56333  17.154  21.265   2.225  0.0989 -0.0046  0.0790
25118W        W56334  15.955  21.216   8.819 -0.0264 -0.1920  0.0329
25119W        W56335  18.740  12.788   9.714  0.1008  0.2535 -0.0234
25120W        W56336  20.421  16.396   2.095 -0.0148  0.3738  0.1932
25121W        W56337  15.187   9.411   7.817  0.0121  0.1705 -0.2645
25122W        W56338   4.081  27.513   7.949  0.1347 -0.0589 -0.1013
25123W        W56339   9.628  12.148   8.348  0.0287 -0.1549  0.1292
25124W        W56340  16.485  12.415  10.169  0.3238 -0.0461 -0.2325
25125W        W56341  12.217   9.486   1.770  0.2824 -0.0584 -0.1307
25126W        W56342  19.635  25.640   9.947  0.0753 -0.2510  0.0659
25127W        W56343  14.904  17.190   0.823 -0.0460  0.0382  0.1357
25128W        W56344   4.934   0.004   8.877 -0.0038 -0.1160  0.0701
25129W        W56345   4.501  14.810   1.286 -0.3135 -0.1380 -0.1800
25130W        W56346  16.550   6.455   8.197 -0.0974 -0.2409 -0.1617
25131W        W56347  10.245  20.864   0.362 -0.5452  0.0299  0.1391
25132W        W56348   4.880   7.611  10.195 -0.1711 -0.2101 -0.0619
25133W        W56349  22.755   1.682   7.912 -0.1702 -0.0321 -0.0628
25134W        W56350  18.757   2.938   9.076 -0.4117 -0.0308  0.2584
25135W        W56351   4.211  13.271   6.944 -0.2293 -0.0286 -0.1548
25136W        W56352  15.011   6.278   3.066 -0.0350  0.0941  0.1911
25137W        W56353  10.649   2.351   7.518 -0.1985  0.0532 -0.0224
25138W        W56354   7.645  19.350   9.130  0.1743  0.1502  0.2946
25139W        W56355   9.588  21.083   7.713 -0.0063 -0.0693 -0.0926
25140W        W56356  10.603  19.092   9.467  0.4359 -0.0481 -0.0951
25141W        W56357   8.689   7.318   1.322  0.3326 -0.4149 -0.1846
25142W        W56358  26.048  18.082   2.668 -0.0072 -0.0974  0.2673
25143W        W56359  23.184  19.773   9.363 -0.3161 -0.1995  0.2962
25144W        W56360   1.903  24.510   0.805 -0.0595 -0.1893 -0.0756
25145W        W56361  26.841   0.487   0.039 -0.1429  0.1460 -0.0471
25146W        W56362   3.012   2.292   1.550 -0.1720 -0.1116  0.0483
25147W        W56363   7.969   9.370   8.444 -0.0037  0.3409 -0.0559
25148W        W56364  10.653  12.407   0.352  0.1733 -0.1324  0.1034
25149W        W56365   8.180  12.338  10.532  0.1405  0.1519 -0.0147
25150W        W56366  19.604  14.833   9.194 -0.0509 -0.1293 -0.0505
25151W        W56367  13.073   1.173   3.012  0.1363  0.0619 -0.3254
25152W        W56368  20.609  10.688   0.328  0.1180 -0.1615 -0.1714
25153W        W56369  12.454  27.133   1.914  0.1992 -0.0324  0.1679
25154W        W56370   8.390  11.076   3.089 -0.0531  0.1724 -0.1083
25155W        W56371  22.361  14.229   1.588 -0.1239 -0.1323  0.0023
25156W        W56372  13.986  12.940   1.295 -0.5050  0.0641  0.2893
25157W        W56373  20.821   4.321   0.540  0.0273  0.3037  0.2779
25158W        W56374   9.404  25.689  10.167  0.3715 -0.1607 -0.2872
25159W        W56375  18.958   9.225  10.005  0.1125 -0.0189  0.0444
25160W        W56376  21.097  27.250   9.170  0.3814 -0.1892  0.1017
25161W        W56377  23.945   6.734   1.123 -0.6124  0.2859  0.0060
25162W        W56378  10.961  26.851  10.243 -0.0088  0.0541  0.1030
25163W        W56379  16.702  22.896   3.272  0.0509 -0.5141  0.0953
25164W        W56380  23.235  10.241  10.368 -0.2061  0.2374 -0.1050
25165W        W56381  24.833  21.726   8.903  0.0796 -0.0307 -0.2161
25166W        W56382  10.631  11.006   9.116  0.0146  0.1822 -0.1540
25167W        W56383   8.734   2.241   3.078 -0.1739  0.0436 -0.0401
25168W        W56384   4.622  10.383   9.388 -0.1987  0.0549 -0.1942
25169W        W56385  10.968   8.927   2.389  0.2257  0.3605  0.1307
25170W        W56386  24.322  10.350   0.947 -0.0793 -0.0341 -0.0852
25171W        W56387  20.088  20.165   8.638  0.0392 -0.1065  0.1808
25172W        W56388   0.420   6.112   2.803  0.0048 -0.1021  0.0352
25173W        W56389  20.006  12.794   8.198 -0.2790 -0.0781  0.0222
25174W        W56390  22.346  11.054   3.036 -0.0513  0.3006 -0.0724
25175W        W56391  18.435   4.239   9.890 -0.0947  0.1175  0.2750
25176W        W56392   2.722   7.172   9.135 -0.1079 -0.1155  0.0387
25177W        W56393   7.452   2.764   0.349 -0.0059 -0.3419  0.1888
25178W        W56394  16.970   9.283  10.181  0.1572  0.1464 -0.2173
25179W        W56395  17.444   9.886   9.816 -0.0030 -0.1823 -0.0753
25180W        W56396   2.424  27.321   2.126 -0.0103 -0.1105 -0.1647
25181W        W56397  17.643   3.965   0.080 -0.0519  0.0159 -0.1557
25182W        W56398   0.180  25.089   0.005  0.2925 -0.0174 -0.0195
25183W        W56399  19.702  16.896   8.243 -0.0243  0.1638 -0.1161
25184W        W56400  16.456  11.047   0.005  0.0522 -0.0660 -0.3314
25185W        W56401  12.096  26.083   2.172  0.0461  0.0563 -0.0698
25186W        W56402   2.476   3.066   2.848  0.1042  0.3990 -0.2027
25187W        W56403  23.358  26.625   2.792 -0.2640  0.1047 -0.0314
25188W        W56404   6.428  27.611   1.988 -0.1060  0.0092  0.1363
25189W        W56405  21.552   0.906   1.735 -0.1658  0.0003 -0.1308
25190W        W56406  27.326   7.476   0.579 -0.1665 -0.3220  0.1138
25191W        W56407   2.047  22.952   3.806  0.0424  0.1344  0.1288
25192W        W56408  18.832   7.623   2.582 -0.0778 -0.1884  0.1678
25193W        W56409  22.678  13.947   3.929 -0.2073  0.3435 -0.0798
25194W        W56410   9.218  10.185   0.726 -0.0404 -0.2286  0.1145
25195W        W56411  13.494  24.949   2.338 -0.1243 -0.1633  0.0456
25196W        W56412   6.914  19.099   0.124  0.0196  0.0350 -0.2646
25197W        W56413  11.254   2.785   2.251  0.0246 -0.1532  0.0677
25198W        W56414  14.237  14.019   0.351  0.3622 -0.1534 -0.2900
25199W        W56415   3.566  19.003   0.577  0.1794 -0.0791 -0.0093
25200W        W56416   0.873  27.046  10.491 -0.0197  0.1256 -0.1213
25201W        W56417  17.011  17.537   9.629 -0.1189  0.0427 -0.1034
25202W        W56418   2.659  20.396   1.605  0.0964 -0.0830  0.3479
25203W        W56419  26.590   0.496   8.773  0.0736  0.2201  0.3164
25204W        W56420  12.166  12.845   8.659 -0.0799  0.2278 -0.0131
25205W        W56421   3.409   8.526   2.732 -0.0701 -0.0147  0.0831
25206W        W56422  26.461  21.497   1.450 -0.1973  0.0279  0.0756
25207W        W56423   8.812  15.030   1.974  0.1493  0.2759  0.3672
25208W        W56424  21.134  23.918   7.131  0.0825  0.2334 -0.3720
25209W        W56425  16.222   7.460   2.490 -0.2040  0.1378  0.1040
25210W        W56426   1.414   4.408   0.595 -0.0505 -0.0599 -0.1115
25211W        W56427  14.878   9.008   9.835  0.1834  0.0670 -0.2382
25212W        W56428  18.412   6.130  10.466 -0.1466 -0.2423 -0.0829
25213W        W56429  23.821   2.862   8.493  0.1468 -0.2812  0.3042
25214W        W56430   4.577  12.752   1.015 -0.0725 -0.0386  0.2334
25215W        W56431  20.225  21.021   1.327 -0.0232  0.0537 -0.1011
25216W        W56432  19.349   5.774   0.208  0.1067  0.3200  0.1195
25217W        W56433  27.157   3.510   9.729 -0.0621  0.0625 -0.2374
25218W        W56434  15.426  10.217   1.537 -0.1771  0.1915 -0.1607
25219W        W56435  13.899  17.915   8.787 -0.1434  0.2298 -0.1191
25220W        W56436   7.104  25.415  10.369  0.4932  0.1167 -0.1443
25221W        W56437  21.533  25.535  10.218  0.0043  0.1380  0.0869
25222W        W56438   7.094   7.053   1.788  0.1289  0.0462  0.1989
25223W        W56439  23.895  10.963   1.972 -0.1347 -0.2151 -0.1722
25224W        W56440  10.802  12.444   3.746 -0.2508 -0.4023 -0.0538
25225W        W56441   1.747  13.039   0.643 -0.1861 -0.0021 -0.0333
25226W        W56442   2.777   9.796   2.874  0.0320 -0.1643  0.2798
25227W        W56443  17.974  20.021   3.157 -0.1137 -0.2764  0.1621
25228W        W56444  26.493  11.716   0.251 -0.0716  0.0153  0.2362
25229W        W56445  21.498  10.953   3.645  0.0956  0.2443 -0.3218
25230W        W56446   5.284  10.210   7.756  0.3256  0.1331  0.0851
25231W        W56447  16.370  25.054   2.269  0.0687  0.2033  0.2972
25232W        W56448  14.704   9.939   2.034  0.0964  0.3073  0.2136
25233W        W56449  22.900  23.580   2.076  0.0434  0.0419 -0.1689
25234W        W56450   9.620  10.424   0.062  0.0459  0.0563  0.1090
25235W        W56451  25.250  18.801   7.653 -0.3817  0.0283  0.0411
25236W        W56452  25.120  20.241   2.475 -0.4317  0.2040 -0.2197
25237W        W56453  19.671   5.607   7.519  0.0823  0.1668 -0.0090
25238W        W56454  15.557  23.072   8.919  0.1092  0.1977 -0.1457
25239W        W56455   7.119   7.299   2.797  0.0457  0.0215 -0.4403
25240W        W56456   6.278   4.633   0.370 -0.3067  0.2309 -0.1736
25241W        W56457   7.926   8.907   2.514 -0.1219 -0.0239  0.0725
25242W        W56458  17.997  16.993   2.867 -0.1110 -0.2223  0.0539
25243W        W56459  11.763  17.508   8.659 -0.0139 -0.0216  0.0660
25244W        W56460  27.273  11.665   9.411  0.0652  0.3396 -0.1785
25245W        W56461  16.334  20.975  10.190  0.1420  0.0184 -0.0264
25246W        W56462  26.121  18.551   0.497  0.0434 -0.0920 -0.1747
25247W        W56463   7.988  21.737   1.779  0.0406 -0.1495 -0.0812
25248W        W56464  16.179  10.318   8.660  0.3226  0.0375  0.0235
25249W        W56465  14.882   5.461   1.983 -0.4039 -0.1118 -0.0114
25250W        W56466  20.619   5.537   1.933  0.0185  0.0456  0.1175
25251W        W56467  17.909  23.415   2.796 -0.1926  0.0532  0.0457
25252W        W56468  27.136  15.352   2.984 -0.1058 -0.1998  0.0974
25253W        W56469   6.836   0.406   0.971  0.0568  0.2038  0.0089
25254W        W56470  17.472  22.131   0.628 -0.1629  0.3936 -0.0220
25255W        W56471   4.917  20.381   0.143  0.1959  0.1393 -0.0693
25256W        W56472   4.082   9.725   7.970 -0.1277 -0.0321  0.1190
25257W        W56473  17.502   3.117   2.405 -0.0121  0.1637 -0.1362
25258W        W56474  10.336  19.550   0.122 -0.0692  0.0027 -0.1469
25259W        W56475  14.509   3.164   3.381 -0.1782  0.3079  0.1256
25260W        W56476   2.790  25.718   2.680 -0.0949 -0.1548  0.0098
25261W        W56477   8.243   6.621   1.345 -0.1152  0.3773 -0.1858
25262W        W56478   0.362   3.798   8.186  0.1048 -0.2961  0.0643
25263W        W56479  22.350  22.312   2.680  0.0595  0.1278  0.1706
25264W        W56480  23.387  10.569   9.510 -0.1539  0.1391 -0.0972
25265W        W56481  11.520  19.643   8.749  0.1385  0.0500  0.0513
25266W        W56482  24.576  14.339   3.064  0.1303 -0.2505  0.2194
25267W        W56483   0.012   0.772   7.835  0.0228  0.0740  0.0568
25268W        W56484   0.913   7.923  10.359 -0.1878  0.0961  0.1059
25269W        W56485  12.064  11.297   8.645 -0.1099 -0.0917  0.2452
25270W        W56486  26.966  25.442   9.653 -0.1875 -0.1708 -0.0763
25271W        W56487   3.209  21.737   2.764 -0.2139  0.0908  0.1142
25272W        W56488   8.879  11.148  10.018 -0.2340  0.0887  0.2215
25273W        W56489  27.220  23.092   9.688  0.1381  0.2821 -0.0372
25274W        W56490  17.950  25.509   0.114 -0.1142  0.0720 -0.3631
25275W        W56491  17.352  25.878   7.406  0.1157 -0.0936  0.2767
25276W        W56492   0.817   3.921   2.995  0.1273  0.0889 -0.0456
25277W        W56493   0.778  24.266   0.219  0.0065  0.0393  0.1389
25278W        W56494   7.074  26.134   8.982 -0.0868 -0.1091  0.2631
25279W        W56495   2.223   2.642   0.518  0.2964  0.0771  0.0339
25280W        W56496  16.469  26.027   3.638 -0.1571 -0.0818  0.1522
25281W        W56497   3.146  11.220   1.498 -0.0459  0.2899  0.1821
25282W        W56498   2.831  12.416   0.320  0.4496  0.3292  0.0237
25283W        W56499  16.240  20.983   1.000 -0.0343 -0.1316 -0.1443
25284W        W56500  21.091  14.721   0.441  0.0795 -0.3353 -0.2012
25285W        W56501   8.424  21.221   8.057 -0.2964 -0.2964  0.0490
25286W        W56502   1.908   9.623   0.821 -0.2530 -0.2135 -0.2269
25287W        W56503   3.644  22.546   1.924 -0.0633 -0.0021 -0.1472
25288W        W56504  23.328   2.811   9.903 -0.0644 -0.0523 -0.0433
25289W        W56505  14.680  11.175   9.505  0.1939  0.0286  0.0722
25290W        W56506   4.702   2.285   9.099  0.0668  0.4821  0.1882
25291W        W56507  21.237  14.086   2.095 -0.2662  0.1273 -0.1169
25292W        W56508  25.393  19.198   0.202  0.0816  0.0036 -0.1530
25293W        W56509  27.264  17.350   0.092 -0.0091 -0.0408  0.3240
25294W        W56510  13.009  25.032   9.624  0.0628 -0.0893 -0.1517
25295W        W56511   1.151   5.722   0.725  0.2052  0.1401  0.2001
25296W        W56512  21.622  11.703   2.117 -0.1742  0.0885 -0.1734
25297W        W56513  10.665   0.216   9.320 -0.0009 -0.0876 -0.3185
25298W        W56514   9.693  11.415   1.161 -0.0773 -0.3667  0.1952
25299W        W56515  12.567   0.939   9.875  0.1323  0.1735 -0.0245
25300W        W56516  19.067  11.346   8.746 -0.3063 -0.0186 -0.2624
25301W        W56517   6.550   6.041   3.118  0.1192  0.0082 -0.1753
25302W        W56518  11.092  11.040  10.028  0.0134 -0.0606  0.0261
25303W        W56519   7.272  12.368   0.891  0.3022 -0.2710 -0.0374
25304W        W56520  14.872  25.687   1.592 -0.0569  0.4677  0.0008
25305W        W56521  12.211  12.207   2.717  0.0070 -0.0351  0.0929
25306W        W56522  19.866   5.835   1.087  0.2459  0.0100  0.2023
25307W        W56523  15.224   0.973  10.479  0.0565  0.0732  0.1358
25308W        W56524  15.623   2.894   9.324 -0.3699  0.1755  0.0245
25309W        W56525   1.751   9.942   9.860  0.0736  0.1540  0.1716
25310W        W56526   1.042  13.213   8.078  0.0389  0.1747  0.3613
25311W        W56527  10.504  11.884   9.640 -0.1253  0.0716 -0.1233
25312W        W56528  12.464  19.012   0.996 -0.0519 -0.0933  0.3527
25313W        W56529  22.426   6.093   9.752 -0.0651  0.2420  0.2990
25314W        W56530  10.231  17.951   7.747 -0.0745 -0.2745 -0.0887
25315W        W56531   6.673  13.049   8.006  0.1983 -0.3086 -0.1679
25316W        W56532  13.509  26.920   9.505  0.0532  0.0335 -0.2609
25317W        W56533   1.329   1.915   1.136  0.0724  0.3102  0.2487
25318W        W56534  17.207   0.504   9.272 -0.0472  0.0880 -0.2512
25319W        W56535   4.503  25.053   1.871 -0.2687 -0.0187 -0.1748
25320W        W56536  12.833   1.081   0.353 -0.1160 -0.3420  0.1070
25321W        W56537  10.663  18.524   1.940  0.0341  0.0861 -0.3058
25322W        W56538   8.449   9.633   9.992 -0.1770 -0.1475 -0.0404
25323W        W56539  17.359  24.734   9.304  0.2102 -0.1819 -0.1946
25324W        W56540   3.082  21.199   2.538  0.1032 -0.3475  0.2282
25325W        W56541   2.438  14.658   1.200 -0.2969  0.0844  0.0781
25326W        W56542  19.982  14.579   9.865 -0.1447 -0.1051 -0.2207
25327W        W56543  20.586  19.310   2.291 -0.1949  0.3470 -0.1664
25328W        W56544  20.841   9.379   1.927 -0.2121  0.0031 -0.1242
25329W        W56545  26.290  11.618   7.833  0.4302 -0.0017  0.0477
25330W        W56546  22.664   6.710   8.084  0.6341  0.0320 -0.1785
25331W        W56547  17.529  21.053  10.301  0.0212  0.0640  0.0013
25332W        W56548  18.551   4.658   9.603  0.3893  0.0778 -0.0911
25333W        W56549   8.784   9.979   0.611 -0.1011  0.0685 -0.1578
25334W        W56550  12.639   9.259   8.817 -0.1876  0.1145  0.1172
25335W        W56551   9.403   5.200   8.386  0.0612  0.0474 -0.3158
25336W        W56552   8.494   5.936   0.689  0.3676  0.0379 -0.1531
25337W        W56553   7.874   1.041   3.261  0.0199 -0.2189  0.1503
25338W        W56554   5.043  18.637   0.611  0.4753 -0.1308  0.1691
25339W        W56555  14.469   9.751   8.442  0.0071 -0.0626  0.2073
25340W        W56556  16.170  23.232   8.940 -0.1731 -0.0248  0.1703
25341W        W56557  18.979  26.451   1.094  0.0727 -0.0454 -0.0543
25342W        W56558   4.371   6.762   8.993 -0.1110  0.0774  0.2249
25343W        W56559  10.521  12.705   2.501  0.3817 -0.0211 -0.0901
25344W        W56560  21.624   2.651  10.514  0.1074  0.1637 -0.0322
25345W        W56561  19.332  15.426   9.786  0.4828 -0.0711 -0.1533
25346W        W56562   7.762   6.702   1.544  0.0281 -0.1908  0.0929
25347W        W56563  20.761  25.079   3.032  0.2572  0.0817 -0.1260
25348W        W56564  21.777   2.321   0.339  0.1900 -0.3291  0.1487
25349W        W56565   7.484   4.644   8.336 -0.1104  0.0026  0.2017
25350W        W56566  24.097   4.957   2.845  0.1077 -0.2718 -0.3367
25351W        W56567   8.060  25.822   0.999  0.0794 -0.2625 -0.0918
25352W        W56568  16.646  27.513   0.194  0.2224 -0.1653 -0.0352
25353W        W56569  11.339  18.208   3.139  0.0873  0.0615 -0.0626
25354W        W56570  11.278   4.991   8.279 -0.1130 -0.3209 -0.1858
25355W        W56571   7.406  23.264   0.898  0.1156  0.0427 -0.2647
25356W        W56572   3.106  12.008   2.762 -0.1672  0.1876  0.3195
25357W        W56573   6.118  22.758   7.797 -0.1247 -0.1122 -0.0678
25358W        W56574   5.337   5.805   0.455 -0.1147  0.0372 -0.0108
25359W        W56575  16.867   2.283   3.565 -0.1333 -0.2049  0.1604
25360W        W56576  12.861   2.516   9.876  0.2494 -0.1521  0.0604
25361W        W56577  25.077   1.420   7.700  0.1118 -0.2189  0.2387
25362W        W56578  26.866  11.495   9.700 -0.2645 -0.1969  0.0351
25363W        W56579  10.848   7.977   8.924 -0.0973  0.3699 -0.0849
25364W        W56580  16.095  13.543   7.584 -0.0576 -0.1046  0.2323
25365W        W56581  16.962  16.586   9.063 -0.1756  0.1289 -0.1721
25366W        W56582  18.512  17.475   8.748 -0.0425 -0.1360  0.1318
25367W        W56583  23.593   2.801   8.910  0.1354 -0.1206  0.1667
25368W        W56584  23.176   8.154  10.493  0.0011  0.0480  0.1727
25369W        W56585   0.353  12.403   8.549  0.2496 -0.3945  0.0262
25370W        W56586   4.907   3.122   9.165  0.0623 -0.2758 -0.2485
25371W        W56587  22.145   0.272   1.606 -0.1315  0.0825  0.0102
25372W        W56588  23.630  27.063   1.016  0.1982  0.0120 -0.3050
25373W        W56589   3.899   1.657   0.501 -0.4337  0.0752 -0.4206
25374W        W56590  21.054   6.709   3.507 -0.1487  0.0390  0.0032
25375W        W56591   6.853  10.309   1.218  0.1694  0.3232 -0.1533
25376W        W56592  22.321  21.227   7.742  0.1953  0.0800  0.2056
25377W        W56593  16.553  24.369   9.608  0.2332  0.0938  0.1526
25378W        W56594  12.860   7.362   2.334 -0.0334 -0.2782 -0.1807
25379W        W56595  26.577   7.290   8.538 -0.1631  0.0618  0.0165
25380W        W56596  26.566  22.287   9.491  0.0781  0.0140  0.1234
25381W        W56597  22.684   0.620   9.553 -0.2210  0.0249  0.0591
25382W        W56598   0.105   2.579   3.255 -0.1007 -0.0110 -0.3635
25383W        W56599  13.361  13.245   0.219  0.1711 -0.2361  0.5335
25384W        W56600   3.032  11.214   0.722  0.0658  0.0679  0.0862
25385W        W56601   2.403  10.179   0.125 -0.0485 -0.3600  0.0461
25386W        W56602  14.515  18.632   8.628  0.4049 -0.0778 -0.2100
25387W        W56603  12.693   3.399   9.791 -0.3636  0.0603 -0.0119
25388W        W56604  22.242   8.271   2.641  0.0275  0.1068  0.1098
25389W        W56605  11.239   6.237   8.179 -0.0321 -0.0204  0.0742
25390W        W56606   3.350  24.728   0.505 -0.0683  0.3648 -0.0443
25391W        W56607   9.827  13.094   9.817  0.3370  0.2088 -0.1181
25392W        W56608  16.169   5.496   0.450 -0.0176 -0.0531 -0.1261
25393W        W56609  25.131   7.482   3.712  0.0740 -0.0328 -0.4737
25394W        W56610  16.954  21.557   9.857  0.2125  0.0681 -0.0853
25395W        W56611  27.611  13.360   7.879  0.1811 -0.2143 -0.0265
25396W        W56612  12.590  19.820   7.768 -0.0200  0.0004  0.0655
25397W        W56613   4.003  21.523   9.665 -0.1331  0.0686 -0.0440
25398W        W56614   5.202   7.849   9.252 -0.0500  0.1506 -0.2250
25399W        W56615  23.049  17.465   8.973 -0.1398 -0.1299 -0.0388
25400W        W56616   5.126  13.488   1.340 -0.0888  0.1879 -0.2518
25401W        W56617  20.681   5.926   9.240 -0.2927  0.0245  0.2539
25402W        W56618  27.560  23.340   2.462 -0.0558  0.2919 -0.1311
25403W        W56619  26.284  25.700   7.573 -0.0413  0.1884  0.1146
25404W        W56620  23.533  27.020   7.925 -0.0248  0.0860 -0.0589
25405W        W56621   2.180  10.947   1.650 -0.0178 -0.0530  0.2451
25406W        W56622  16.993   7.385   1.331 -0.2816  0.0499 -0.2350
25407W        W56623  13.312  16.017   1.614  0.1215  0.2850 -0.1227
25408W        W56624  21.272   1.264   3.000  0.0210 -0.2234  0.0720
25409W        W56625  24.835  24.116   9.834  0.0684  0.0453 -0.2653
25410W        W56626  26.418  11.109   8.112  0.0029 -0.2707  0.1734
25411W        W56627  25.101   2.737   9.971 -0.0505  0.3646  0.1900
25412W        W56628  18.841  10.614   0.010  0.1200 -0.0003  0.0558
25413W        W56629   0.884   1.802   1.221  0.1885  0.0331  0.3869
25414W        W56630  16.823   9.048   9.634 -0.0095  0.3108  0.0841
25415W        W56631  21.085  27.440   7.936  0.1872 -0.0567 -0.1740
25416W        W56632  14.055  13.590   1.048  0.0113  0.1631  0.0864
25417W        W56633   0.053  19.757   0.745 -0.0759  0.3724  0.0262
25418W        W56634   3.126   8.373   1.246 -0.2329 -0.1069 -0.1331
25419W        W56635  10.039   9.002   2.809 -0.0880 -0.0016 -0.1041
25420W        W56636  23.816  18.722   9.807  0.2868 -0.0588 -0.0891
25421W        W56637  22.017  12.921   3.351 -0.0742 -0.4368  0.2719
25422W        W56638  10.860   3.115   9.861 -0.0842  0.4968  0.2171
25423W        W56639  25.863  18.178   7.580  0.2616  0.3178  0.1344
25424W        W56640  27.159   0.943   2.099  0.1631 -0.3014 -0.0950
25425W        W56641   2.542   8.086   2.706 -0.0855  0.1926  0.1079
25426W        W56642  25.440  25.939   0.356  0.1365 -0.3583  0.1328
25427W        W56643  25.516  27.302   8.498 -0.3316  0.3205  0.2476
25428W        W56644  15.639  18.493   1.523  0.2243 -0.1709 -0.0278
25429W        W56645   5.827  23.146   1.516  0.1767  0.1096  0.3070
25430W        W56646  14.811  18.952   1.368 -0.1109 -0.0848 -0.2977
25431W        W56647  25.707  10.224   2.365 -0.0957 -0.0762 -0.1491
25432W        W56648  18.235   7.761   1.414 -0.1227  0.0071  0.1108
25433W        W56649  18.164  24.143   8.711  0.1759 -0.2572  0.0361
25434W        W56650  24.159   1.946   0.281 -0.1349  0.0322 -0.0772
25435W        W56651   6.710  14.846   1.798  0.2495  0.0386 -0.0645
25436W        W56652   4.885   7.682   0.145  0.0064 -0.3288  0.1592
25437W        W56653   7.145   8.705   8.448 -0.0053 -0.1271  0.0427
25438W        W56654  26.716  21.117  10.375  0.2269 -0.2310 -0.1821
25439W        W56655  18.988   3.514   2.825 -0.5512 -0.0303 -0.2202
25440W        W56656  18.048  25.038   1.447  0.3134 -0.2203  0.1106
25441W        W56657  20.677   2.483   7.552 -0.1236 -0.2117  0.2896
25442W        W56658  18.441   2.351  10.278 -0.0376 -0.0809  0.0602
25443W        W56659  19.599   0.241   2.869 -0.3680 -0.0716  0.0230
25444W        W56660   1.171  24.585   0.415  0.1630  0.0123 -0.1497
25445W        W56661   0.848   0.929   9.081  0.3780  0.1492 -0.1309
25446W        W56662  24.904  20.079   9.226 -0.0554 -0.0149  0.2522
25447W        W56663  22.875  15.922   1.053  0.2271  0.2500  0.2377
25448W        W56664   8.079  17.519   0.879  0.1595 -0.0084  0.0701
25449W        W56665   3.393   1.523   2.507  0.1659  0.3724 -0.0425
25450W        W56666  19.259   4.318   2.553  0.2312 -0.0747  0.0147
25451W        W56667  13.768  10.762   8.559  0.0902  0.2845  0.1570
25452W        W56668  20.656  21.807   7.222  0.1736 -0.0394  0.0246
25453W        W56669  20.391   7.431   2.432 -0.1333 -0.2233 -0.2587
25454W        W56670   3.145  14.876   9.467 -0.4088  0.0982 -0.0534
25455W        W56671   7.744  16.656  10.055  0.2452 -0.0057 -0.1559
25456W        W56672  18.266  13.125   8.854 -0.1627  0.1482  0.0758
25457W        W56673   6.448  16.168   0.903 -0.0511  0.0053  0.0820
25458W        W56674   6.744   7.249   1.505 -0.3014  0.4714 -0.1592
25459W        W56675  18.158   2.358   0.156  0.2937  0.0179 -0.1237
25460W        W56676   6.909  27.444   8.181 -0.1039 -0.0271 -0.1351
25461W        W56677  14.572  13.352  10.170 -0.0713  0.1553 -0.2564
25462W        W56678   7.953  27.435  10.254 -0.0062  0.2612 -0.1342
25463W        W56679   6.042  18.614   0.876  0.0966  0.2770  0.2398
25464W        W56680   8.802   1.543   2.871 -0.1532  0.0961 -0.0006
25465W        W56681  13.562  22.237   0.384 -0.0675 -0.1394  0.2350
25466W        W56682   4.021  13.678   2.667  0.0484  0.1981 -0.0585
25467W        W56683  20.599   3.314   0.508  0.1103  0.2564 -0.0681
25468W        W56684  20.122   9.492   8.678  0.0085  0.2445 -0.2105
25469W        W56685  24.343  12.237   1.317 -0.0523  0.2257 -0.1589
25470W        W56686   3.434  26.290   0.949 -0.1749  0.0826 -0.0035
25471W        W56687  13.879  17.653   2.179  0.0437 -0.0595  0.1290
25472W        W56688   0.552   4.727   2.978  0.0118  0.1566  0.0135
25473W        W56689   7.963  10.817   0.413  0.1037  0.4477  0.0045
25474W        W56690  15.945  26.181   3.686  0.1722  0.1600  0.3309
25475W        W56691   3.949   6.459   7.697 -0.0547 -0.2225 -0.2424
25476W        W56692  21.409   1.467  10.543  0.4747 -0.2238 -0.0757
25477W        W56693   7.332  18.748   2.735 -0.1659 -0.0888 -0.1821
25478W        W56694  19.796   2.236   8.132  0.0335  0.3087 -0.1169
25479W        W56695   0.419   4.095   3.655 -0.0941  0.0848  0.2654
25480W        W56696  20.678   0.598   1.130 -0.0053  0.0298 -0.1100
25481W        W56697  19.512  17.147  10.203 -0.0618  0.1316  0.3193
25482W        W56698  14.482   0.067   2.041  0.2565  0.3480 -0.4789
25483W        W56699   6.007  25.004   9.183 -0.3747  0.0610 -0.1215
25484W        W56700   4.759  15.097   1.698 -0.0129  0.1244  0.1212
25485W        W56701  21.465  25.577   9.150  0.0556  0.2402 -0.0944
25486W        W56702   6.371   8.076   0.821  0.2349  0.2094 -0.1102
25487W        W56703  11.483  15.396   7.951  0.0673 -0.3967 -0.2218
25488W        W56704  19.483  14.735   7.698  0.2269 -0.1819 -0.1137
25489W        W56705  23.595  17.431   7.447  0.0789  0.2363 -0.0161
25490W        W56706   3.340  22.751   3.183  0.1451  0.3709 -0.0116
25491W        W56707   0.787  22.937   1.513 -0.2217  0.0439 -0.2251
25492W        W56708  24.330  17.984   1.233 -0.1508  0.1223 -0.1234
25493W        W56709  26.115  26.915   8.443 -0.1826 -0.1557  0.1455
25494W        W56710   5.391  16.198   2.556 -0.0625 -0.0929  0.0843
25495W        W56711   5.604  23.541   1.749 -0.1185  0.1000  0.2740
25496W        W56712   3.354   9.944   9.164  0.2192 -0.1158  0.0207
25497W        W56713  25.485  14.204   1.680 -0.1290 -0.1173 -0.2156
25498W        W56714   0.141  22.547   8.429 -0.2120 -0.1298  0.1308
25499W        W56715  10.356   1.162   9.050 -0.2319  0.3235 -0.0625
25500W        W56716   3.025   0.293   8.237  0.0614  0.1559  0.0984
25501W        W56717  19.395   6.722   9.220 -0.3682 -0.2861  0.2092
25502W        W56718  27.142  25.581   7.765 -0.1997  0.2313 -0.0161
25503W        W56719  26.778  14.876   9.281 -0.2072 -0.3462 -0.0710
25504W        W56720  14.979   2.957   8.256 -0.3210 -0.1207 -0.0909
25505W        W56721  20.816  14.676   0.025 -0.0526  0.0560  0.0814
25506W        W56722  18.406  20.992   8.908 -0.1463  0.0483 -0.0171
25507W        W56723   2.967  14.885   0.383 -0.3225 -0.3155  0.1398
25508W        W56724  13.875  16.243   0.949 -0.1232 -0.0356 -0.3823
25509W        W56725  16.769  24.593   2.555  0.1506 -0.2570 -0.0755
25510W        W56726  17.086  20.193   9.782 -0.2700  0.2880 -0.2142
25511W        W56727   9.924   6.688   7.344  0.3168 -0.2369  0.0704
25512W        W56728  13.236  15.009   9.428  0.0239  0.2289  0.1583
25513W        W56729  18.615  16.684  10.231  0.2268 -0.0559 -0.1878
25514W        W56730  16.374  15.814   7.753 -0.2912 -0.1346 -0.1937
25515W        W56731  20.210  25.998   0.969 -0.0033  0.2989 -0.2528
25516W        W56732  12.131  22.994   0.204 -0.1198 -0.0474  0.0529
25517W        W56733   9.706  22.285   9.278 -0.3301 -0.2319 -0.1796
25518W        W56734  14.234  26.616   0.655  0.0434 -0.3314  0.0994
25519W        W56735  18.660   6.888   8.648 -0.0680  0.1642 -0.1643
25520W        W56736  15.020  13.437   1.922 -0.0372 -0.2826 -0.0413
25521W        W56737  16.584   3.934   1.732  0.0581  0.1923  0.0342
25522W        W56738   8.680  16.248   1.520  0.0793  0.1030 -0.0472
25523W        W56739   4.846   4.256   7.513  0.2683  0.0064  0.1818
25524W        W56740  21.025  12.264   1.504  0.0266  0.1028 -0.1034
25525W        W56741  17.958  22.870   2.620  0.1344  0.0863  0.3872
25526W        W56742   9.428   8.162   2.455  0.0646 -0.0843  0.1584
25527W        W56743   6.302   3.651   2.083  0.0989 -0.0068  0.2243
25528W        W56744  23.538  22.674   8.400 -0.1487  0.1238 -0.0814
25529W        W56745   9.069  19.220   9.184  0.1121  0.2252  0.1184
25530W        W56746  12.356  13.438   1.990 -0.2795  0.2043  0.0010
25531W        W56747  20.237  11.184   8.343 -0.1247  0.2304  0.1262
25532W        W56748   4.340   8.397   7.758 -0.1382 -0.1697 -0.1049
25533W        W56749  21.619  21.857   2.893  0.2205 -0.3617 -0.1043
25534W        W56750  26.400  15.553   0.972  0.1454 -0.4038 -0.0071
25535W        W56751  21.903  13.303   9.671  0.4678  0.0259  0.0312
25536W        W56752  16.362   9.915   2.425  0.3378 -0.0290 -0.1778
25537W        W56753  21.011  22.147   8.740  0.0632  0.0694 -0.2182
25538W        W56754   3.209  20.906   4.112  0.2922 -0.1788 -0.0480
25539W        W56755  14.111  23.790   2.359 -0.1345  0.0453 -0.1048
25540W        W56756  27.028   7.795   8.194 -0.5906  0.1923 -0.3071
25541W        W56757   1.243  27.237   8.186  0.1249  0.1354  0.5517
25542W        W56758  12.575   7.785   0.384  0.0722  0.0576 -0.3634
25543W        W56759   5.223  18.371   9.247 -0.0180  0.1354  0.1285
25544W        W56760  26.205  24.143  10.411  0.0046 -0.0722 -0.2639
25545W        W56761   4.052   2.596   8.367 -0.0631  0.1756  0.0291
25546W        W56762  17.388  23.004   2.071 -0.1337 -0.1796 -0.0559
25547W        W56763  13.420  11.081   8.901  0.1764  0.2128 -0.0318
25548W        W56764   0.780   1.442   8.926 -0.1512  0.0169 -0.0070
25549W        W56765  11.873   2.554   9.131  0.1946  0.2096 -0.1663
25550W        W56766  21.489  23.690   0.415 -0.0670 -0.0997 -0.2586
25551W        W56767  23.732  24.509   0.119 -0.3589 -0.0684 -0.0338
25552W        W56768  20.626  24.260   2.467 -0.1315 -0.1347 -0.0164
25553W        W56769  18.169  15.027   1.446  0.3089  0.1290  0.0961
25554W        W56770  26.200   1.921   7.311 -0.2537  0.5022 -0.1143
25555W        W56771  22.288  18.824   9.864 -0.0967 -0.2366 -0.0313
25556W        W56772   7.985  21.894   9.270 -0.0622  0.2132  0.1679
25557W        W56773   0.719   8.482   3.332  0.1085 -0.0931 -0.2987
25558W        W56774   0.978  24.706   9.928 -0.1980 -0.0196 -0.1820
25559W        W56775  11.347   4.255   0.215 -0.0415  0.1595  0.2452
25560W        W56776  24.838  12.762   8.697  0.1744  0.1090  0.2157
25561W        W56777  12.873   7.830   9.879  0.0831  0.2786 -0.1214
25562W        W56778  19.536  11.885   7.094 -0.1707 -0.0785 -0.0043
25563W        W56779  22.260  24.203   3.109  0.3271  0.2996 -0.0740
25564W        W56780   1.025  19.474   0.958  0.3023  0.1759  0.0563
25565W        W56781  18.418  24.777   9.608  0.1920 -0.3594  0.2624
25566W        W56782  16.326  26.944   8.569  0.1635 -0.3569 -0.2383
25567W        W56783  24.992  14.314   9.588 -0.3217 -0.0010 -0.2454
25568W        W56784  25.403   3.463   2.155  0.0387  0.0548 -0.1612
25569W        W56785   0.984   9.077   9.998 -0.0179 -0.0343  0.0859
25570W        W56786  19.529  24.518   2.877  0.2228 -0.0324  0.0315
25571W        W56787   4.702  16.621   8.885  0.2860  0.0392 -0.1890
25572W        W56788  17.522   0.598   7.845 -0.4416  0.1842 -0.1950
25573W        W56789   6.137  25.923   3.330  0.1012 -0.0333 -0.2025
25574W        W56790   1.657  10.916   3.639 -0.0771 -0.3887 -0.1369
25575W        W56791  13.763  23.611   0.563 -0.1240 -0.0417 -0.1313
25576W        W56792  10.097  16.201  10.351  0.1025 -0.0180 -0.0270
25577W        W56793  14.641   5.511  10.455  0.0027 -0.1276 -0.1593
25578W        W56794   0.500  27.040  10.186  0.0212  0.0352  0.0737
25579W        W56795  10.331  17.621   2.642 -0.0929  0.0761  0.0757
25580W        W56796  20.020  18.829   9.220  0.0951  0.1774 -0.1799
25581W        W56797  27.608   8.558   9.707  0.4334  0.1076  0.2784
25582W        W56798  26.982  10.097   9.741  0.0350  0.0909 -0.2815
25583W        W56799  19.744  20.834   0.440  0.1104  0.0088  0.0027
25584W        W56800  26.243  12.837  10.313 -0.0252  0.2877  0.2512
25585W        W56801   4.415   5.003   9.878  0.1012  0.2340  0.3193
25586W        W56802   6.624  17.439   8.694  0.3355 -0.0148 -0.3051
25587W        W56803  17.125   5.034   2.519  0.0663 -0.1566  0.1730
25588W        W56804   6.471  12.245   3.331 -0.2194  0.1779  0.0680
25589W        W56805  18.864  21.554   9.644 -0.2486 -0.1967 -0.0888
25590W        W56806  23.470  20.227   2.746 -0.0211  0.2597  0.0625
25591W        W56807   1.607  22.046   7.824 -0.2990  0.1540 -0.1678
25592W        W56808  10.814  16.552   8.629 -0.0683 -0.3512  0.0579
25593W        W56809   2.492  19.015   2.276  0.2458 -0.0372  0.2343
25594W        W56810   1.526   5.540   3.648  0.1472 -0.2713  0.0859
25595W        W56811  10.859  22.195   8.448  0.0941  0.1860 -0.0710
25596W        W56812   5.719   4.199   0.418 -0.2324  0.0798 -0.1373
25597W        W56813  23.984  21.249  10.158 -0.2172 -0.1625 -0.1073
25598W        W56814  12.617  19.793   2.835  0.2281 -0.1081 -0.2192
25599W        W56815  13.837   6.183   9.670 -0.0037  0.1813 -0.1533
25600W        W56816  21.146  19.196   9.174 -0.1816 -0.0932 -0.0497
25601W        W56817  27.179   9.267   9.232 -0.2066  0.0727  0.1227
25602W        W56818  14.716  19.516   9.511  0.3081 -0.2010 -0.2806
25603W        W56819  21.085  25.756   0.937 -0.1120  0.1278 -0.0238
25604W        W56820  10.628  18.030   3.771 -0.0164  0.0223 -0.1082
25605W        W56821  27.424   7.512   8.437 -0.0608 -0.3068 -0.0050
25606W        W56822  10.573  26.977   2.268  0.1281 -0.0667 -0.4501
25607W        W56823  17.951  10.225   7.529  0.1656 -0.0047  0.0024
25608W        W56824  11.267   7.969   0.309  0.0138  0.0965 -0.1859
25609W        W56825  13.629  20.369   0.080 -0.1513 -0.2691 -0.0616
25610W        W56826  18.339   9.986   1.096  0.0661  0.2009  0.0003
25611W        W56827   4.363   5.493   1.429  0.0695 -0.3057  0.0422
25612W        W56828   6.547  12.706   0.354  0.0990 -0.3358 -0.2072
25613W        W56829  12.346   7.662   7.815  0.2274  0.1790  0.2294
25614W        W56830   9.844   8.183   9.988  0.2837 -0.1502  0.0836
25615W        W56831  13.935   8.034   9.317  0.2530  0.0191 -0.0351
25616W        W56832  20.611  21.430   8.265 -0.0275  0.0972 -0.0402
25617W        W56833   1.252  23.668   2.033  0.0065 -0.3616 -0.3038
25618W        W56834   1.801   6.691   7.493 -0.2593  0.2825  0.1960
25619W        W56835  13.049  17.752   8.892 -0.0259 -0.1602  0.0277
25620W        W56836  18.765  23.498   9.731  0.1886  0.0808 -0.1387
25621W        W56837   9.903  26.344   1.797  0.1282 -0.2794  0.0804
25622W        W56838   6.895   4.298   1.620 -0.3299 -0.0680 -0.1431
25623W        W56839   9.865   0.689   1.953  0.2785  0.0112 -0.1894
25624W        W56840  24.885  26.361   9.337  0.0277 -0.3684 -0.1320
25625W        W56841  13.541  26.786   8.629  0.0429 -0.2537  0.3857
25626W        W56842   3.529  19.127   9.784  0.3336  0.2346 -0.0638
25627W        W56843  14.147  18.931   3.752  0.1287 -0.0259 -0.2202
25628W        W56844  12.247  26.408   1.370 -0.0643 -0.0176  0.1930
25629W        W56845   6.549  14.128  10.355  0.1062 -0.0290  0.1907
25630W        W56846  16.661  10.090  10.293 -0.3527  0.1447 -0.0695
25631W        W56847   5.680   2.487   0.654  0.2753  0.4367  0.0275
25632W        W56848  26.473  14.876   8.904  0.0984 -0.3186  0.0930
25633W        W56849  12.603   4.517   9.612 -0.2897 -0.0650  0.0323
25634W        W56850  26.364  11.004   0.018  0.0679  0.1811 -0.0012
25635W        W56851  19.056  15.425   7.206  0.2195  0.2484  0.2131
25636W        W56852  15.829  12.513   1.811  0.0163  0.0691 -0.0289
25637W        W56853   3.354   5.502   1.515  0.1825  0.0231  0.0021
25638W        W56854  15.502   9.564   0.814 -0.0119 -0.1180  0.0602
25639W        W56855  16.045  26.131   9.297  0.0155  0.0147 -0.0012
25640W        W56856  21.025   7.993   1.293 -0.0304  0.0542 -0.1748
25641W        W56857  18.690  11.926   0.664  0.2480  0.2611 -0.0975
25642W        W56858  20.678  25.167   8.819  0.0547  0.1543 -0.0117
25643W        W56859  19.359  14.148   2.640 -0.1451  0.3118  0.0914
25644W        W56860   6.496   7.654  10.031  0.0579 -0.2309 -0.1789
25645W        W56861  20.809  14.697   2.688  0.0008  0.2267 -0.0635
25646W        W56862  12.427   7.605   2.696  0.1318  0.0140 -0.0962
25647W        W56863  17.030  21.498   1.670 -0.2289 -0.0624 -0.3098
25648W        W56864  13.687  23.083   9.067 -0.0518 -0.2587 -0.0187
25649W        W56865   9.770  24.755   1.874 -0.0371 -0.0464 -0.0342
25650W        W56866  10.844   2.336   9.019  0.1803  0.1033  0.1970
25651W        W56867  16.958   0.913   9.212  0.0101  0.2672 -0.1495
25652W        W56868   9.790  15.620   2.792  0.4246 -0.1006 -0.0922
25653W        W56869   4.565  19.338   2.554 -0.3432 -0.1882  0.1350
25654W        W56870  27.385  23.366   3.264 -0.0698 -0.1464  0.0786
25655W        W56871   5.899   7.959   9.936  0.4549 -0.0117  0.2480
25656W        W56872   3.607  18.459   0.001 -0.1601  0.2208 -0.1176
25657W        W56873  18.731  14.280   9.145  0.1587  0.0174 -0.0648
25658W        W56874  18.001  10.723   2.187  0.0187 -0.2171 -0.0344
25659W        W56875  20.248  20.882   0.493 -0.1955 -0.0889 -0.2774
25660W        W56876  10.865   2.214   2.521  0.1010  0.1955 -0.1551
25661W        W56877   4.110  16.757   0.429  0.3006 -0.0411 -0.0525
25662W        W56878   7.083   8.252   8.828  0.0465  0.1218  0.3282
25663W        W56879   6.445  25.791   9.073  0.1596 -0.1611  0.2116
25664W        W56880  27.050   7.283   2.742  0.1756  0.0507  0.2476
25665W        W56881  22.006   6.531   9.802 -0.1270 -0.1095  0.1078
25666W        W56882  21.740   5.852   9.094  0.0246  0.0576 -0.1783
25667W        W56883   3.386  26.942   0.787 -0.0956  0.0310 -0.0931
25668W        W56884  24.779  13.969   3.582  0.0947 -0.1730 -0.0372
25669W        W56885  16.915  13.718  10.505 -0.0748  0.2028  0.0404
25670W        W56886  21.212  16.309   9.809 -0.0553  0.3472  0.0619
25671W        W56887  15.882  24.032   1.984 -0.1241 -0.1932  0.0682
25672W        W56888   5.517  13.621   1.649  0.1150 -0.1083  0.0668
25673W        W56889  18.537   0.424   0.955 -0.0100  0.2526  0.0782
25674W        W56890   3.804   0.318   9.572 -0.0290  0.4161  0.0595
25675W        W56891  17.024  22.091   0.414 -0.3003 -0.1468 -0.0459
25676W        W56892  16.303   8.049   0.084  0.0078  0.1456  0.0422
25677W        W56893   2.590  11.746   8.554  0.1001 -0.1756 -0.1297
25678W        W56894   6.008   4.045   8.791 -0.1611  0.1351  0.0450
25679W        W56895   1.652   3.449   0.600  0.1772 -0.0580 -0.0407
25680W        W56896   9.821  19.649   7.122 -0.2158  0.2079 -0.0830
25681W        W56897  24.453   6.097   0.197 -0.0017  0.0173 -0.0868
25682W        W56898  15.976  14.912   0.818 -0.0723  0.0634 -0.0401
25683W        W56899   6.045  25.414  10.301  0.2012 -0.4787 -0.0655
25684W        W56900  11.361  23.203   0.192  0.1738 -0.0365  0.3511
25685W        W56901  10.558   7.569   8.687 -0.0801 -0.0575 -0.1058
25686W        W56902  26.858  15.733   8.594 -0.0433  0.0558  0.2794
25687W        W56903  22.338   7.921   1.722  0.0524  0.1633 -0.1161
25688W        W56904  20.078   6.874   3.497 -0.3563 -0.1140  0.2057
25689W        W56905  17.727  21.406   7.837 -0.0329 -0.3989  0.1527
25690W        W56906  10.810  10.474   9.251 -0.3325 -0.2635 -0.0484
25691W        W56907   1.032   0.670   3.005 -0.2737 -0.0853  0.1756
25692W        W56908  12.153   8.432   3.052  0.1014  0.1355 -0.0794
25693W        W56909   8.826  17.221   0.418  0.1916  0.0589  0.0610
25694W        W56910  27.422  17.928   9.620  0.0935 -0.0947  0.2085
25695W        W56911  19.248  19.838   2.810  0.0278 -0.2053  0.3623
25696W        W56912   6.329   0.936   1.426 -0.0366 -0.1745 -0.1352
25697W        W56913  17.405   5.228   8.562 -0.1661  0.0665  0.1076
25698W        W56914  10.661  16.698   7.697 -0.0229  0.3112 -0.0293
25699W        W56915   5.730  15.734   1.074  0.0493 -0.0762 -0.2692
25700W        W56916  21.351   6.543   0.258  0.1964  0.0705  0.0453
25701W        W56917  12.394  27.225   0.992 -0.1486 -0.0766 -0.0756
25702W        W56918  24.714  21.612   1.671  0.1023  0.2831 -0.0713
25703W        W56919  12.781   6.924   1.577 -0.1199 -0.1276  0.0640
25704W        W56920   0.037  18.290   1.909  0.0568  0.0188 -0.4050
25705W        W56921   8.474   7.665   2.604  0.0085 -0.0967  0.1940
25706W        W56922  25.346  10.563   2.976  0.2421 -0.1244  0.0497
25707W        W56923  10.264  21.063   2.989  0.0191 -0.1858  0.0195
25708W        W56924   7.158  14.157   2.515  0.0563  0.0096 -0.0369
25709W        W56925   6.883   6.997   7.982 -0.0351 -0.0293 -0.0437
25710W        W56926   6.514  26.236   1.369 -0.0164  0.3172 -0.3594
25711W        W56927  16.562  25.756   0.535 -0.0455  0.0294 -0.2165
25712W        W56928  18.874  12.210   9.516  0.0820 -0.1534 -0.2320
25713W        W56929  10.953  13.861   0.135  0.1652  0.3449  0.2034
25714W        W56930  13.290  22.696  10.230 -0.1973  0.0104  0.0842
25715W        W56931  12.642   8.734   9.228  0.1300  0.1646 -0.1730
25716W        W56932  24.908  16.437   8.964  0.1911 -0.0896  0.0790
25717W        W56933  12.651   8.825   2.448 -0.0370 -0.0144  0.0431
25718W        W56934  20.091  10.921  10.183  0.1279  0.1696  0.1113
25719W        W56935  18.112   7.247   2.248  0.1739  0.1811 -0.1551
25720W        W56936  10.548   9.946   9.253  0.1801  0.1487 -0.0449
25721W        W56937   9.819  17.770   2.220 -0.3458 -0.0274  0.0548
25722W        W56938  17.658  21.945   9.521  0.1681 -0.1527 -0.2317
25723W        W56939  21.353   0.839   9.251  0.0489  0.0371 -0.1190
25724W        W56940  19.864  18.740   2.419  0.0353  0.2682 -0.1574
25725W        W56941  14.672  12.757   8.388  0.1100  0.3321  0.1488
25726W        W56942  24.480   2.714   1.137 -0.1002 -0.1200 -0.1851
25727W        W56943  17.481  25.159   2.937 -0.0701  0.0328  0.3856
25728W        W56944  15.687  24.345   9.502 -0.2942  0.1978  0.2834
25729W        W56945  22.322  23.836   9.199 -0.2950 -0.1768 -0.1282
25730W        W56946  19.592  16.371   1.049 -0.0476 -0.0070 -0.0087
25731W        W56947  25.915   4.602   0.349 -0.1887  0.2442 -0.2830
25732W        W56948   7.820  10.975   0.924  0.3422 -0.1073 -0.0456
25733W        W56949  10.990  16.975   8.858  0.0406  0.0242 -0.0112
25734W        W56950   3.460  14.607   9.114  0.1371  0.1257 -0.2600
25735W        W56951   4.179  22.917   9.698 -0.0856  0.1334  0.3219
25736W        W56952   9.561  20.053  10.269  0.0741 -0.2924 -0.2548
25737W        W56953   4.041  18.522   2.833 -0.1098 -0.0679  0.3330
25738W        W56954   6.283  25.193   1.841  0.1201  0.0749  0.3515
25739W        W56955  22.999  20.664   1.219 -0.0956 -0.0030 -0.2293
25740W        W56956  25.042  24.099   2.641  0.5213  0.2773  0.2209
25741W        W56957  18.240  17.693   1.851  0.2613 -0.3028 -0.1118
25742W        W56958   4.379  15.932   2.663  0.0093  0.0962  0.1563
25743W        W56959  26.110  10.267   1.497 -0.1011  0.1543  0.0315
25744W        W56960   4.448  17.469  10.111 -0.0176 -0.0558 -0.0776
25745W        W56961  23.386   0.230   8.231 -0.0529  0.0619  0.0742
25746W        W56962  27.194  13.785   3.601 -0.1860 -0.1902 -0.0955
25747W        W56963  17.747  13.688   2.247 -0.2443  0.2479  0.1665
25748W        W56964  20.216   6.836   2.147 -0.2030  0.0137  0.0056
25749W        W56965   7.499  11.089   8.104 -0.1137 -0.4621 -0.1188
25750W        W56966  16.423  17.400   0.971 -0.0241  0.0535  0.0217
25751W        W56967  22.031  26.471   2.248 -0.0570 -0.0533 -0.1129
25752W        W56968   2.391  24.904   1.187  0.0088 -0.4472 -0.1637
25753W        W56969   6.361  20.952   3.046 -0.4499 -0.0164 -0.2240
25754W        W56970  22.585  26.271   0.532 -0.0875 -0.3027  0.1180
25755W        W56971  13.689   6.140   0.199  0.3863  0.0515 -0.3544
25756W        W56972  25.672  17.568   1.672  0.3461 -0.0948 -0.0473
25757W        W56973  20.270  25.599   0.106 -0.0108  0.3117 -0.0483
25758W        W56974   6.499   2.657   1.857  0.4105 -0.0764 -0.0006
25759W        W56975   9.910  17.074   8.278 -0.1005  0.0927  0.1505
25760W        W56976   8.357  14.541   8.952 -0.0682 -0.3658 -0.3062
25761W        W56977   8.120   9.127   9.226  0.1824 -0.0965  0.2974
25762W        W56978  15.995  15.545   0.970  0.0543 -0.0211 -0.2231
25763W        W56979  23.715   7.641   8.706 -0.0928 -0.2355 -0.2361
25764W        W56980  22.373  18.854   7.129 -0.4159  0.1841  0.0369
25765W        W56981  26.532   8.547   2.107  0.0439 -0.1752 -0.1124
25766W        W56982  24.290  19.940   1.238  0.0762  0.0121  0.0398
25767W        W56983  15.994   6.595  10.116 -0.0548 -0.4656  0.1091
25768W        W56984  22.253  21.189   1.303  0.0901 -0.2218 -0.0679
25769W        W56985   7.749  12.322   2.627  0.2514  0.3403 -0.1014
25770W        W56986  16.212  12.923   0.751 -0.1160 -0.0583  0.2418
25771W        W56987  13.450   1.838   7.798  0.0698  0.0021 -0.5686
25772W        W56988  26.362   1.954   8.921 -0.5891 -0.2283  0.0588
25773W        W56989  21.439  15.365  10.284 -0.3263  0.2860 -0.0004
25774W        W56990  10.850  23.119   0.740  0.2913 -0.0036  0.0900
25775W        W56991  26.537  21.967   1.199  0.0710 -0.1091  0.2163
25776W        W56992  12.528   4.163   2.093  0.0751 -0.3206  0.1793
25777W        W56993  26.666  10.460   9.813  0.0431 -0.0989  0.0528
25778W        W56994  22.829  20.013   0.825  0.1218 -0.1272  0.1742
25779W        W56995  22.320   5.157   2.328  0.0361  0.1061 -0.1655
25780W        W56996  22.444  23.273   2.868 -0.0949  0.4016 -0.0046
25781W        W56997  21.929  19.224   2.776  0.1409  0.0927  0.1103
25782W        W56998   9.195  22.633  10.092 -0.0233 -0.1149  0.0947
25783W        W56999  22.624  24.989   3.119 -0.2185  0.1604 -0.2639
25784W        W57000   0.184  15.754   2.069  0.1722 -0.3094 -0.0721
25785W        W57001  20.626  11.959   2.577  0.1204  0.2101 -0.1014
25786W        W57002   6.443  13.739   2.577 -0.6108  0.2204 -0.0062
25787W        W57003  11.595  15.654   2.705  0.0337 -0.1605  0.0324
25788W        W57004   4.791  17.700   8.680  0.0217 -0.0843  0.0074
25789W        W57005  15.182  21.523   1.518 -0.0205  0.0499  0.1136
25790W        W57006  20.481  17.523   0.903 -0.1049  0.1836  0.1745
25791W        W57007  13.823   2.276   0.205  0.0099 -0.0845  0.1341
25792W        W57008  17.671   4.427  10.322 -0.1711  0.1176  0.0939
25793W        W57009  22.794  17.820   9.772 -0.0250 -0.1004  0.2632
25794W        W57010  10.712   5.191   1.414 -0.1072 -0.0843  0.2916
25795W        W57011  19.165  18.966   9.920 -0.1330  0.0065  0.0800
25796W        W57012  19.862  18.135   0.548 -0.3316  0.2426 -0.2299
25797W        W57013   7.640   6.493   0.326  0.4176 -0.0211 -0.0763
25798W        W57014  19.847   7.794   7.299  0.0202  0.0250  0.1583
25799W        W57015  20.515   9.502   7.590 -0.0230  0.0458  0.0746
25800W        W57016  21.077   7.154   0.107 -0.1002 -0.1251  0.0988
25801W        W57017  25.739  19.209   1.629  0.1326 -0.0722  0.0462
25802W        W57018  16.067  12.275   0.024  0.1381  0.0172 -0.1164
25803W        W57019  23.967   5.436  10.508  0.1896 -0.2103 -0.1545
25804W        W57020   6.926  16.304   9.241  0.0696  0.0097 -0.2681
25805W        W57021  22.654   9.073  10.000  0.1415 -0.0150  0.1268
25806W        W57022  18.846  25.154  10.420 -0.2488  0.2834 -0.0365
25807W        W57023   5.212  15.519   1.091 -0.0236 -0.1500  0.2058
25808W        W57024   3.771  20.353  10.143 -0.0169 -0.2714 -0.1541
25809W        W57025  19.002  22.470   9.251  0.0458  0.3458  0.4097
25810W        W57026  11.341   0.088   8.437 -0.3281  0.0790  0.1258
25811W        W57027   0.669   5.263   8.473 -0.1344 -0.1781  0.0596
25812W        W57028  23.277  27.203  10.543  0.3586 -0.0271  0.0465
25813W        W57029   9.435  11.144   8.354 -0.0881 -0.2564 -0.0020
25814W        W57030   4.384  25.207   8.287  0.2487  0.1073  0.0440
25815W        W57031  21.682  27.002   9.797  0.1308 -0.1723  0.2141
25816W        W57032   4.474  17.341   8.320 -0.2590  0.1131  0.1764
25817W        W57033  13.190  20.411   8.265  0.0595 -0.2385 -0.1263
25818W        W57034  15.714  12.762   8.537  0.4061 -0.1145  0.0608
25819W        W57035   1.677  14.539   8.083 -0.2135 -0.2482 -0.0574
25820W        W57036   5.350  18.740   2.422 -0.0864 -0.1711  0.0301
25821W        W57037  11.792   1.514   0.576 -0.1876  0.0642  0.0506
25822W        W57038   4.436  26.200  10.053  0.0620 -0.1479 -0.0869
25823W        W57039  16.762  20.922   1.442  0.0745  0.0831  0.1282
25824W        W57040   7.083  25.515   0.680  0.2622 -0.0349 -0.1631
25825W        W57041  26.878  10.926   9.850 -0.1139  0.2559  0.1375
25826W        W57042   5.717   3.074   2.390 -0.0732  0.0032  0.1851
25827W        W57043   5.996  15.916   0.724 -0.2885 -0.1439 -0.4137
25828W        W57044  19.712  15.851   0.931  0.0206  0.0609  0.0485
25829W        W57045  11.492   9.842   2.272 -0.0710 -0.2391 -0.2079
25830W        W57046  14.650  11.502   7.720  0.1572  0.0695 -0.0843
25831W        W57047  27.233  17.512   3.288 -0.1127  0.0837  0.0039
25832W        W57048   4.783  17.328   9.064  0.3118  0.2399 -0.0848
25833W        W57049  17.264  13.036   1.536 -0.0344  0.0978  0.0582
25834W        W57050   3.483  12.979   0.658 -0.3056  0.1353 -0.1179
25835W        W57051  17.942  18.099   1.672 -0.0709 -0.0043 -0.1694
25836W        W57052  26.061  15.505   2.898 -0.2221  0.0318  0.2910
25837W        W57053  25.523   0.416   3.768  0.2869  0.1687  0.0061
25838W        W57054  15.900  26.437   8.875  0.2040 -0.3211 -0.0072
25839W        W57055  17.959   5.682   7.393  0.0314  0.0150 -0.2528
25840W        W57056  14.342   2.267   2.299  0.2791 -0.0032 -0.1387
25841W        W57057  18.800   2.797   1.891 -0.1766 -0.3883 -0.0759
25842W        W57058   6.904  19.842   8.963  0.0870  0.0031 -0.0243
25843W        W57059   7.212  17.235   1.200 -0.2443  0.1860  0.0405
25844W        W57060  10.682   1.060   9.447  0.2149 -0.2808 -0.0922
25845W        W57061  20.287  19.812   7.881 -0.0341 -0.5074  0.3201
25846W        W57062   8.066  20.033   0.004  0.1115  0.0617  0.1518
25847W        W57063  10.135  19.066   9.147  0.1463 -0.2289 -0.0180
25848W        W57064  18.540  24.509   1.098  0.3612 -0.0332 -0.2487
25849W        W57065  18.981   3.064   8.404 -0.1286 -0.3360 -0.2595
25850W        W57066   6.412   9.291   9.505  0.1863 -0.0499  0.0018
25851W        W57067   7.947   0.290   2.152  0.0636  0.1188 -0.0984
25852W        W57068  10.901  19.507   9.900 -0.0965  0.2527 -0.0140
25853W        W57069  21.093  21.472   3.489 -0.3717 -0.2212  0.0540
25854W        W57070   9.825  23.849   2.831  0.0959 -0.1583 -0.1456
25855W        W57071  22.599  13.886  10.285  0.1124 -0.0579 -0.2908
25856W        W57072  11.061  15.966   0.694  0.0193  0.0638  0.1494
25857W        W57073  18.393  21.345   9.384  0.1574 -0.0342  0.3426
25858W        W57074  12.596   4.498   8.031 -0.1602  0.1197 -0.0811
25859W        W57075  11.297  21.690   8.358  0.3015 -0.0627 -0.0257
25860W        W57076   9.583  12.681   8.508 -0.0842 -0.1768  0.1985
25861W        W57077  15.003  24.561   2.262  0.0575 -0.2157 -0.0072
25862W        W57078  24.970   1.737  10.178 -0.1677 -0.0402 -0.2359
25863W        W57079  10.900  25.328   8.102  0.0442 -0.1421 -0.0600
25864W        W57080   4.849   1.117   9.305 -0.1334  0.0929 -0.0201
25865W        W57081  13.637   8.324   9.111 -0.0274 -0.0512  0.1920
25866W        W57082  21.404  23.048   8.125 -0.0111 -0.0314 -0.3179
25867W        W57083  10.304   2.686   2.861  0.0536  0.1019 -0.1026
25868W        W57084   5.290  24.910   3.042 -0.0976 -0.0985  0.1934
25869W        W57085  14.952  14.679   9.983  0.3640 -0.1460  0.1186
25870W        W57086   7.640   4.904   2.592 -0.0655 -0.0873  0.0889
25871W        W57087  12.784  22.048   9.384  0.0279  0.2033  0.2057
25872W        W57088   6.182   2.078   9.334  0.1117 -0.1732  0.1455
25873W        W57089   5.727  16.171   1.373 -0.0159  0.0163  0.1231
25874W        W57090   4.932  24.475   8.582 -0.0441  0.0932  0.1245
25875W        W57091  17.330  22.334   1.307  0.0556  0.1601  0.2775
25876W        W57092   8.773   9.728   7.788 -0.3246  0.0067  0.0904
25877W        W57093   4.764   0.670   8.891 -0.1649 -0.4180  0.2321
25878W        W57094  15.367  11.089   7.738  0.0993 -0.0521 -0.0443
25879W        W57095  27.002   6.573   0.299  0.1338  0.1602 -0.0381
25880W        W57096  22.760  17.632   2.663 -0.2497  0.2499  0.0554
25881W        W57097  15.830  26.316   9.704 -0.2234 -0.1500  0.1037
25882W        W57098  17.643   8.679   8.663 -0.1146  0.3901  0.1208
25883W        W57099  11.477  23.842  10.513  0.1607 -0.1536 -0.0817
25884W        W57100  27.512  21.782   9.515 -0.1664  0.1304 -0.2513
25885W        W57101  26.270  13.223  10.049 -0.0099 -0.0935 -0.2192
25886W        W57102   2.856  23.603   9.777 -0.0312  0.2610  0.0978
25887W        W57103   6.618   2.022   2.321 -0.1964 -0.0704 -0.0703
25888W        W57104   9.964  21.854  10.052 -0.2527 -0.0085  0.0208
25889W        W57105  25.677  23.741   7.934 -0.2763  0.3793  0.0177
25890W        W57106  24.961   9.628   4.169 -0.0981  0.0155  0.1018
25891W        W57107  12.230  25.576  10.443  0.3378  0.0696  0.0947
25892W        W57108  11.399  10.602   2.904 -0.1197 -0.2271 -0.0316
25893W        W57109  11.393  22.896   0.601 -0.0626 -0.1415  0.2569
25894W        W57110   2.183   4.751   2.604 -0.2134 -0.0499 -0.3800
25895W        W57111  15.808  23.187   1.917 -0.1956 -0.1050  0.1225
25896W        W57112   9.040   9.961   3.466  0.3482 -0.0502 -0.0283
25897W        W57113   3.081  22.754   4.033 -0.1446  0.1405  0.0761
25898W        W57114  18.960   0.682   7.417 -0.0942  0.2179  0.2146
25899W        W57115   1.032  10.205   1.436 -0.1803 -0.2579  0.2080
25900W        W57116  18.657   8.838   0.570 -0.0049 -0.2200  0.0697
25901W        W57117  16.884  23.695   2.174 -0.0798 -0.0732 -0.1034
25902W        W57118   8.744   7.704   8.845  0.0024  0.0143 -0.0527
25903W        W57119   7.902   1.610   8.058  0.1324  0.0101 -0.2716
25904W        W57120  23.487  17.081   8.949 -0.0959  0.1323 -0.0650
25905W        W57121  20.195  20.215   2.039 -0.1635 -0.0682 -0.1451
25906W        W57122  27.547  25.866   8.486 -0.1016  0.1386 -0.1352
25907W        W57123  18.587   2.775  10.435 -0.0982  0.1337 -0.1212
25908W        W57124   7.490  25.765   0.405  0.4348 -0.0627 -0.0407
25909W        W57125  21.782  25.396   1.549  0.1277 -0.0974 -0.2654
25910W        W57126   0.342  26.464  10.131 -0.1529  0.2921 -0.2044
25911W        W57127   9.171  21.803   8.550  0.0154 -0.0370  0.0329
25912W        W57128   4.757  22.837   3.847 -0.1086  0.1502  0.2036
25913W        W57129   0.438  20.169  10.270  0.0913  0.1685  0.2572
25914W        W57130   3.057   5.192   0.386 -0.2130 -0.1076 -0.2425
25915W        W57131  24.594  23.245   3.705 -0.0434 -0.1364  0.3107
25916W        W57132  13.983  11.354   2.798  0.1868 -0.1587 -0.1137
25917W        W57133  24.390  20.531   9.758 -0.2726 -0.0392 -0.2412
25918W        W57134  18.196   2.273   8.917  0.1609 -0.2039  0.3079
25919W        W57135  10.054   8.380   0.808 -0.0464 -0.1542 -0.0320
25920W        W57136  11.414  24.827   9.880 -0.1815  0.1061 -0.2693
25921W        W57137  23.731  21.174   9.259  0.3666  0.0175  0.0789
25922W        W57138   9.184  20.705   1.872 -0.1679 -0.0283 -0.2388
25923W        W57139   6.282   5.550   0.547  0.1030 -0.0860  0.0341
25924W        W57140  13.003   1.774   9.212 -0.1257 -0.1453  0.0280
25925W        W57141  23.721  10.960   9.542  0.1691 -0.2009  0.0144
25926W        W57142  25.623  10.270   8.869  0.1740 -0.0085  0.1507
25927W        W57143  27.206   9.542   7.607  0.2047 -0.0921  0.1804
25928W        W57144   8.187  20.415   8.758 -0.0996 -0.0601  0.4543
25929W        W57145  11.252   4.940   0.221 -0.0209  0.1373 -0.0572
25930W        W57146  24.701  21.721   3.046 -0.3311 -0.0133 -0.0154
25931W        W57147   8.702  22.750   7.401  0.1276 -0.0376 -0.1147
25932W        W57148  14.889   9.119   1.503  0.1365 -0.0392 -0.1131
25933W        W57149  21.885  16.334   8.535 -0.0473 -0.3218 -0.1457
25934W        W57150   7.974  22.854   2.225  0.0422  0.0645 -0.0718
25935W        W57151  16.190   0.260   1.706  0.1676  0.1247 -0.0318
25936W        W57152  26.271  19.584   0.617  0.1068 -0.0941  0.1201
25937W        W57153  23.706   8.894   9.077  0.1379  0.1908  0.0772
25938W        W57154   7.199  19.533   3.197  0.1597 -0.0180  0.0807
25939W        W57155   1.754   8.465   9.289  0.0055  0.2242  0.0160
25940W        W57156  25.885  22.476   2.590  0.0563 -0.2054 -0.0319
25941W        W57157  20.679   5.154   8.285 -0.0339  0.1443 -0.1462
25942W        W57158   6.591   4.009   9.133 -0.1307  0.1569 -0.0691
25943W        W57159  13.699  18.144   0.202 -0.3089  0.1728 -0.1024
25944W        W57160   4.100  13.968   8.586  0.0226  0.0042 -0.0869
25945W        W57161  16.044  14.493   8.726  0.2174  0.0868 -0.1739
25946W        W57162   2.971  17.135   7.974 -0.1953  0.1442  0.0827
25947W        W57163  13.290  27.201   1.936 -0.2303  0.2040  0.0127
25948W        W57164  12.687  18.918   9.207 -0.1968 -0.2969  0.0613
25949W        W57165  11.268  26.382   9.478 -0.0025 -0.0021  0.3540
25950W        W57166  26.183   1.167  10.186 -0.4321  0.1778 -0.1015
25951W        W57167   2.266  20.236   1.943  0.1077 -0.5355  0.0890
25952W        W57168   6.795  19.095   9.645  0.0653  0.0809  0.0943
25953W        W57169  12.083   5.970   8.533 -0.3561 -0.1752 -0.0001
25954W        W57170  21.290  15.199   9.757 -0.0271  0.2301 -0.1514
25955W        W57171   7.302  10.371   2.521  0.2497  0.3003 -0.0474
25956W        W57172  25.015  22.885   1.597  0.0436 -0.0134 -0.0703
25957W        W57173  23.956   6.304   1.429 -0.2250  0.2989  0.3241
25958W        W57174  22.377  20.517   2.788 -0.1242  0.0282  0.0021
25959W        W57175   0.815  24.848   8.074  0.0079 -0.0802  0.1206
25960W        W57176   5.046   7.752   0.666 -0.0266 -0.0172  0.3303
25961W        W57177   9.366  21.190   2.834  0.0086 -0.1051 -0.0665
25962W        W57178  25.704  26.163   9.016  0.0920  0.1274 -0.2171
25963W        W57179  14.691  16.317  10.224  0.1178 -0.1485 -0.0341
25964W        W57180  19.820   4.122   7.651  0.0337 -0.0567 -0.1482
25965W        W57181  21.926  25.201  10.368 -0.2314 -0.0442  0.0560
25966W        W57182  16.977   5.786   2.869 -0.1739 -0.1149 -0.2924
25967W        W57183  22.517  25.842   7.254  0.2802 -0.0251 -0.2874
25968W        W57184   2.968  12.702   9.321 -0.2301  0.0837 -0.2586
25969W        W57185  16.745  22.018   9.446 -0.1630 -0.3596  0.0320
25970W        W57186  19.106  11.699   3.222  0.1295  0.0112 -0.1599
25971W        W57187  24.324   7.762   9.553 -0.4507 -0.0656 -0.3334
25972W        W57188  18.149   3.882   7.166 -0.2598 -0.2972  0.2863
25973W        W57189  12.903   4.924   2.692 -0.0019  0.0434 -0.1158
25974W        W57190  14.129  25.040  10.005 -0.0771  0.2658 -0.3102
25975W        W57191   9.477  19.329   2.908  0.0008  0.2120 -0.3841
25976W        W57192  18.117  11.197   0.494  0.0503 -0.1976  0.1758
25977W        W57193  18.910   6.889   2.632  0.0871 -0.1269 -0.0539
25978W        W57194  10.871  22.188   9.737 -0.1069 -0.2239 -0.2557
25979W        W57195  23.389  12.319   0.901 -0.0754 -0.5188 -0.1075
25980W        W57196  23.979  21.335   6.915 -0.1639 -0.0497 -0.1740
25981W        W57197   0.735  17.698   1.101  0.1135  0.0731  0.0189
25982W        W57198  19.777   1.335   1.214 -0.0851 -0.1877  0.0976
25983W        W57199  22.492  25.920   9.118 -0.2012  0.2362 -0.3465
25984W        W57200  24.995  21.013   7.332 -0.3014  0.2944  0.0157
25985W        W57201   9.909  10.754  10.363  0.1283  0.2042  0.0481
25986W        W57202   2.110   1.527   0.662  0.3380 -0.1551 -0.0754
25987W        W57203  10.730  20.563   1.055  0.1392  0.2279 -0.0853
25988W        W57204  17.491   0.010   2.906  0.1887  0.0010  0.0516
25989W        W57205   6.190  25.898  10.208 -0.3702  0.0131  0.4503
25990W        W57206  26.512   2.685   3.363 -0.1009  0.2047  0.0255
25991W        W57207  18.361  18.501   8.894  0.1161  0.2208  0.1403
25992W        W57208   7.093  19.251   1.913 -0.0116 -0.0801  0.1264
25993W        W57209   5.355   1.763   7.602  0.0829 -0.0203  0.2406
25994W        W57210   5.197  10.752   2.637  0.1597 -0.2071 -0.1143
25995W        W57211  16.262  22.316   0.063  0.2447  0.0520  0.0610
25996W        W57212  27.133  23.553   2.814  0.1235 -0.1036 -0.1721
25997W        W57213   8.494   5.600   2.506  0.0647  0.0623  0.4279
25998W        W57214   5.877  11.686   9.325  0.2397  0.2765  0.1872
25999W        W57215  10.891  21.262   8.050  0.1847 -0.0210  0.0282
26000W        W57216  24.526  27.489   1.941 -0.0253  0.0017 -0.0125
26001W        W57217  11.184  24.864   7.346  0.1833 -0.1300 -0.1104
26002W        W57218   2.105   5.022   4.183 -0.0785  0.1356 -0.0415
26003W        W57219  27.287   9.193   3.751  0.0911 -0.5656 -0.1785
26004W        W57220   4.531  20.362   7.604 -0.1903  0.3378 -0.3670
26005W        W57221   1.135  16.895   9.544  0.0191  0.2716 -0.2028
26006W        W57222  15.485   2.471   8.890  0.2272  0.2123 -0.0555
26007W        W57223  22.888   2.305   0.538  0.1265  0.2237  0.0829
26008W        W57224  26.235  18.196   1.638 -0.0052 -0.1575 -0.1376
26009W        W57225   8.763  20.737   2.389  0.0541  0.2155 -0.1307
26010W        W57226  24.662   8.760   9.427  0.1108 -0.0526  0.2272
26011W        W57227  14.332   5.109   1.298  0.2934  0.0481 -0.0346
26012W        W57228   8.820  14.036  10.133 -0.0244  0.0664  0.0730
26013W        W57229   8.338  19.962   0.399  0.1552  0.0770 -0.2600
26014W        W57230  24.213  19.851   9.389  0.0505 -0.2586  0.2692
26015W        W57231  18.887  11.582   7.754 -0.1154  0.0662 -0.3271
26016W        W57232  20.441  26.695   8.465  0.2935  0.0500  0.2434
26017W        W57233  11.445  22.336   9.039 -0.1773  0.0559  0.0311
26018W        W57234  20.722  24.365   8.441 -0.1288 -0.0089  0.0299
26019W        W57235   6.918   0.668   3.512 -0.0617  0.0815 -0.2116
26020W        W57236  18.298  27.441   2.956 -0.1868 -0.2087 -0.2795
26021W        W57237   6.695   9.021   2.248 -0.1451  0.0844 -0.0601
26022W        W57238  24.983  14.389   1.635 -0.0929 -0.3138 -0.1150
26023W        W57239  22.998  23.996   9.924 -0.0810 -0.0168 -0.1824
26024W        W57240   6.352  23.440   3.686 -0.1937  0.1908  0.1082
26025W        W57241  25.892  13.617   0.329 -0.1672 -0.1843  0.2137
26026W        W57242  21.516   2.248   9.041 -0.4406 -0.0443  0.2388
26027W        W57243   6.763  14.414   0.914  0.5867 -0.0148  0.3230
26028W        W57244  20.067   9.180   0.092  0.2496 -0.1878  0.1705
26029W        W57245  19.108  23.140   2.476  0.1411 -0.2288  0.1948
26030W        W57246   7.171   2.116   3.487  0.1715  0.2472  0.0176
26031W        W57247  15.955   2.850   2.810  0.0047 -0.1452  0.1436
26032W        W57248   8.588   8.466   3.440  0.2957  0.1131 -0.3272
26033W        W57249  18.167  20.885   9.460  0.0834  0.0431  0.2597
26034W        W57250  21.852  16.162   2.822  0.2260  0.0002  0.0958
26035W        W57251   0.674  25.303   1.667 -0.2079 -0.0412 -0.0618
26036W        W57252   1.801  25.119   7.874  0.0720 -0.1908 -0.1904
26037W        W57253  23.846  13.357   2.614 -0.3024 -0.0355 -0.1468
26038W        W57254   5.619  14.911   2.944  0.0356 -0.1322  0.0857
26039W        W57255   5.544  12.490   7.818  0.0022 -0.0076  0.0118
26040W        W57256  26.459  11.640   9.115  0.1276 -0.2280 -0.0266
26041W        W57257   4.212  19.845   1.907 -0.2014 -0.0146  0.0800
26042W        W57258  18.201   0.610   8.719 -0.2923 -0.1362  0.2551
26043W        W57259   6.530  26.707   0.153 -0.0596  0.2692 -0.0103
26044W        W57260  20.420   7.090   0.725 -0.0576 -0.2667 -0.0322
26045W        W57261  22.298   0.812   3.502 -0.1039 -0.0465 -0.0356
26046W        W57262  22.932  26.958   2.795  0.2461  0.2996 -0.1799
26047W        W57263  19.420   6.283   1.893 -0.0300 -0.0341 -0.0577
26048W        W57264  25.924  15.348   0.851  0.3278  0.1301 -0.0457
26049W        W57265   4.846  16.456   3.403 -0.3473  0.0500  0.0557
26050W        W57266  25.119  19.527   8.363 -0.1714  0.0101 -0.2903
26051W        W57267  23.052   3.068   2.847 -0.1183  0.0603  0.3038
26052W        W57268   5.441   6.496   2.539 -0.1137 -0.0064  0.3544
26053W        W57269  24.285   4.686   0.239  0.3025  0.0521  0.1068
26054W        W57270  17.105  13.774   7.531  0.0621  0.2689  0.0215
26055W        W57271  21.314  23.477   3.671  0.0992  0.2642  0.3700
26056W        W57272  15.027  11.315   7.462  0.0107  0.0040  0.2261
26057W        W57273  27.531   5.592   1.902  0.0412 -0.0598  0.0494
26058W        W57274  14.253   3.411   2.430 -0.0887 -0.0250 -0.1685
26059W        W57275   9.485  15.507   2.271  0.0100 -0.2871 -0.0583
26060W        W57276  11.629  10.264   4.007 -0.1812 -0.0742 -0.4506
26061W        W57277  22.544  15.112   1.527  0.3685 -0.1207  0.1764
26062W        W57278  17.075  20.930   1.045 -0.1796 -0.1377 -0.0574
26063W        W57279  23.346  12.918   3.256  0.2107  0.1498  0.1597
26064W        W57280   6.137  18.274   9.628 -0.5850 -0.2540  0.1480
26065W        W57281  23.681  10.210   7.745 -0.0026  0.1367 -0.0620
26066W        W57282   9.002  26.997  10.279 -0.4234 -0.1443  0.0661
26067W        W57283   5.440  15.810   2.855 -0.0197  0.1422  0.1487
26068W        W57284  17.094  23.641   2.781  0.2973  0.1920  0.0714
26069W        W57285   8.973  16.244   0.772 -0.2925  0.0308  0.0475
26070W        W57286  10.472   7.195   1.659  0.1662 -0.1123  0.0871
26071W        W57287  22.302  11.798   8.513  0.0083  0.1106 -0.3470
26072W        W57288   1.639  21.568   7.746  0.1448 -0.2164  0.1497
26073W        W57289  15.064   3.863   2.192 -0.1457  0.2875  0.3815
26074W        W57290  16.616  22.929   9.014 -0.1918  0.2935 -0.0199
26075W        W57291   2.514   7.528   1.823 -0.0394  0.3016 -0.0867
26076W        W57292  22.652   7.358   0.876 -0.0375  0.0443 -0.0624
26077W        W57293  14.674  13.709   8.197  0.0086  0.1690  0.0784
26078W        W57294  11.871   1.233   9.038 -0.0359 -0.2609 -0.1671
26079W        W57295   1.661  16.651   1.959 -0.1105 -0.2257  0.0295
26080W        W57296  24.783  10.276   7.254  0.1398  0.2013  0.0933
26081W        W57297  24.364   2.152   1.221  0.2366 -0.1646 -0.1310
26082W        W57298  12.150  10.134   0.057  0.0055 -0.0398 -0.1788
26083W        W57299   8.458  16.945   9.533 -0.0834 -0.3930 -0.0349
26084W        W57300   5.515  26.689   9.148  0.1664 -0.1336  0.4169
26085W        W57301  22.872   7.116   8.258 -0.1008  0.1137  0.2148
26086W        W57302   0.531   2.198   9.527 -0.0803 -0.3396  0.0082
26087W        W57303  26.079  22.958  10.088  0.0431  0.3595  0.0406
26088W        W57304  23.253   8.938   8.592  0.1647  0.2330  0.2991
26089W        W57305   6.894   2.714   1.052  0.1078 -0.0031 -0.1207
26090W        W57306  20.578  23.260   9.381 -0.0037 -0.2561  0.0107
26091W        W57307  20.882  13.013   0.897  0.0719 -0.1168 -0.0381
26092W        W57308  13.243   8.028  10.311 -0.0521  0.1958  0.1394
26093W        W57309   4.250   1.449   1.012 -0.0344  0.0470 -0.1685
26094W        W57310   3.209  26.009   0.635  0.1704 -0.0884  0.1900
26095W        W57311  20.109  19.646   7.257 -0.1615  0.1198  0.0409
26096W        W57312   9.646   6.059   1.558  0.1206 -0.0197 -0.1931
26097W        W57313   7.104  27.336   0.230  0.0518  0.0111  0.3239
26098W        W57314   3.849  23.325   9.738 -0.0014  0.1579  0.1014
26099W        W57315  21.920   6.903   7.953 -0.0266  0.3495 -0.0506
26100W        W57316  21.549   8.375   8.735  0.3001  0.0498 -0.1443
26101W        W57317   9.032  24.030   1.290 -0.0661 -0.1178  0.1411
26102W        W57318   2.443   7.860  10.530  0.1380  0.2814 -0.0146
26103W        W57319   6.054  12.838   2.156  0.0033 -0.1532  0.0867
26104W        W57320  21.529  18.314   1.557 -0.0663 -0.1201  0.3509
26105W        W57321   6.706  21.457   8.826 -0.0707 -0.0400 -0.1196
26106W        W57322  16.866  24.175  10.095 -0.0620 -0.1550 -0.0195
26107W        W57323  18.695   2.393   9.042 -0.1623 -0.0660  0.0507
26108W        W57324   1.665  23.888   3.851 -0.0939 -0.3478  0.3241
26109W        W57325   3.106  20.804   0.650  0.4021  0.0897 -0.0073
26110W        W57326  25.727   8.968   1.563  0.2432  0.2034  0.0739
26111W        W57327  21.945  10.717  10.013 -0.0706  0.0770 -0.1321
26112W        W57328  24.389  21.580   8.780  0.2053 -0.1196  0.0900
26113W        W57329  14.629   9.011   1.998 -0.2311  0.1208  0.5169
26114W        W57330   7.209  13.289   8.966  0.1701  0.3118 -0.0245
26115W        W57331  15.540  17.015   8.365 -0.1761 -0.2956  0.3593
26116W        W57332  12.359   0.389   1.737  0.3309  0.2226  0.1951
26117W        W57333   1.314  18.294   3.653 -0.0932  0.0801  0.4458
26118W        W57334   1.229  19.259   8.613  0.0973  0.0962 -0.2477
26119W        W57335  17.917  22.152   2.612 -0.1876 -0.1101 -0.2219
26120W        W57336  11.548  22.289   3.195  0.0122 -0.0359 -0.0204
26121W        W57337   5.212   3.333   8.400 -0.3007  0.0574 -0.0156
26122W        W57338  15.738  18.004   8.400  0.1527 -0.1063 -0.0708
26123W        W57339   9.476   3.803   0.707  0.2102 -0.2419 -0.1369
26124W        W57340  15.363  17.375   1.590  0.0659  0.2694 -0.2214
26125W        W57341  15.752   1.223   9.200 -0.3826  0.2425  0.2657
26126W        W57342   2.412  18.738   2.813 -0.0039  0.2211  0.2677
26127W        W57343  11.140   8.562   9.766 -0.1715 -0.2852  0.6194
26128W        W57344   6.769  21.503   3.906 -0.1053  0.0106 -0.0443
26129W        W57345  15.831   1.072   3.537 -0.0350  0.2149 -0.2937
26130W        W57346  20.923  25.310   8.073 -0.1877  0.1608 -0.0801
26131W        W57347   8.160  21.298   1.549  0.1335  0.2737 -0.0542
26132W        W57348  11.133   3.149   0.965 -0.1649 -0.0801  0.0272
26133W        W57349  11.256  12.839   1.406 -0.0582 -0.0815 -0.2057
26134W        W57350  16.332  19.885   2.086  0.1594  0.1043  0.3602
26135W        W57351  20.091  15.809   7.853  0.1166  0.0218 -0.0923
26136W        W57352  26.914  20.692   2.351  0.1506  0.1997  0.0569
26137W        W57353  10.301  25.768   3.324  0.1495 -0.0705 -0.0219
26138W        W57354   6.077   6.714   2.579 -0.0170  0.3253 -0.1991
26139W        W57355  15.964  19.718   1.686 -0.0828  0.2691 -0.2175
26140W        W57356   4.301  10.463   8.983  0.0890  0.2318 -0.0511
26141W        W57357   2.066  15.237   0.491 -0.0604 -0.0028  0.0244
26142W        W57358   7.421  27.368   1.676 -0.2954  0.0051  0.0422
26143W        W57359  21.057  10.807   2.662 -0.0638 -0.1147  0.0735
26144W        W57360  26.060  16.226   2.114 -0.1961 -0.1376 -0.0195
26145W        W57361  26.768  26.754   1.495  0.2217 -0.1310 -0.2160
26146W        W57362   1.379  17.064   1.638 -0.1489 -0.2202 -0.0876
26147W        W57363  15.971  10.595   9.005 -0.4522  0.0937  0.1962
26148W        W57364  10.046  21.186   8.164 -0.1990  0.3452  0.0767
26149W        W57365   6.960   3.432  10.541 -0.4189 -0.2129 -0.2704
26150W        W57366   5.589   7.423   7.743  0.3213  0.1316 -0.3503
26151W        W57367   9.487  10.904   2.481  0.2125 -0.2837  0.1278
26152W        W57368   1.329  26.533   0.271  0.2602  0.2039 -0.2319
26153W        W57369   2.340  20.294   0.007  0.0858 -0.2234 -0.2088
26154W        W57370  19.677  15.941   9.977  0.0427 -0.2817  0.0212
26155W        W57371   7.501  23.868  10.263 -0.2136  0.1279  0.0873
26156W        W57372  22.003  12.367   9.190 -0.1024 -0.4127  0.4418
26157W        W57373  24.725  12.868  10.279 -0.0001  0.0549 -0.0730
26158W        W57374   4.567  17.336   3.079  0.0253 -0.0834  0.0172
26159W        W57375   7.122  14.906  10.218 -0.2375 -0.1488 -0.0266
26160W        W57376  17.284  20.510   0.369  0.2812  0.1547 -0.2767
26161W        W57377  13.564   6.992   9.714 -0.3211 -0.0517  0.2361
26162W        W57378  15.091   7.038   9.428  0.2769  0.2401  0.1378
26163W        W57379  19.350   8.980   9.673 -0.2041 -0.1171 -0.1132
26164W        W57380  19.280  12.454   2.077  0.0160  0.1650  0.0842
26165W        W57381   1.223   9.145   9.036 -0.4140 -0.1619  0.1429
26166W        W57382  16.375   5.781   8.862  0.0007 -0.2180 -0.1601
26167W        W57383   2.937  12.293   1.281 -0.1830  0.1556  0.0289
26168W        W57384  19.132  25.125   2.017 -0.0159  0.2681 -0.2444
26169W        W57385  25.264  22.493   7.301 -0.3534  0.1216 -0.0107
26170W        W57386  13.929   0.038   0.966  0.1311 -0.3000  0.1088
26171W        W57387  11.005  18.872  10.486  0.1479  0.2066  0.2314
26172W        W57388   1.887   4.250   0.725  0.3125  0.2053  0.1232
26173W        W57389  17.992   3.530   7.807  0.0950 -0.0281 -0.1955
26174W        W57390   0.504   8.341   9.260  0.1493  0.1607  0.1442
26175W        W57391  12.272  14.184   2.142  0.0222  0.1151 -0.1462
26176W        W57392  11.796  10.254   8.909 -0.0206 -0.0978 -0.0671
26177W        W57393  18.739   1.402   0.746  0.7382 -0.0095  0.0632
26178W        W57394  17.384   9.326   1.002  0.2964  0.0645 -0.0082
26179W        W57395  17.385   5.680   0.508  0.2207 -0.1109  0.1996
26180W        W57396  16.832   7.834   1.259 -0.2330 -0.1381 -0.3226
26181W        W57397   3.723   3.143   2.124 -0.2558 -0.1403 -0.1412
26182W        W57398  16.552   8.269   9.837 -0.0029 -0.1818 -0.0572
26183W        W57399  23.559  21.640  10.241 -0.1171 -0.1378  0.1270
26184W        W57400  19.045  17.265   1.198 -0.0793  0.2230 -0.1604
26185W        W57401  22.514  11.583   9.787  0.1506 -0.5166  0.0788
26186W        W57402  15.785  19.606   0.360  0.4074 -0.0053  0.1412
26187W        W57403  21.534   8.990   9.683  0.1317 -0.2994  0.0429
26188W        W57404   0.086  27.595  10.534  0.1017 -0.0119 -0.0940
26189W        W57405   0.710   6.617   2.015  0.0649  0.2149 -0.0433
26190W        W57406  15.083   5.554   9.778  0.1966  0.1231 -0.0971
26191W        W57407  21.337  14.424   1.242  0.2380  0.1392  0.2126
26192W        W57408   0.425   9.084   0.171  0.0334  0.2655  0.0222
26193W        W57409   9.928  19.945   8.538 -0.0287 -0.3665  0.2171
26194W        W57410   2.388  22.403   8.906 -0.2375 -0.0947  0.0686
26195W        W57411  22.883  10.136   3.083 -0.2018 -0.1011 -0.0071
26196W        W57412   6.923   4.369   9.456  0.0100  0.1344 -0.2958
26197W        W57413  10.612  24.994   2.896 -0.1361 -0.1887 -0.1124
26198W        W57414   6.933   8.910   2.715 -0.1192 -0.2508  0.0261
26199W        W57415  17.785  26.427   3.337  0.1432  0.3950  0.0968
26200W        W57416   9.988  27.058  10.501  0.1672 -0.0337  0.0489
26201W        W57417   7.547  25.392  10.151 -0.3647 -0.2542 -0.3322
26202W        W57418   8.960  24.300   9.455  0.1031  0.1922  0.3770
26203W        W57419  15.297  21.782   2.830  0.0826 -0.2183  0.0551
26204W        W57420  22.265  19.841  10.028  0.0971 -0.1695  0.0758
26205W        W57421  18.738  17.969   3.070 -0.1619 -0.0657  0.1009
26206W        W57422   0.685  22.540   8.205  0.0382  0.0363  0.0602
26207W        W57423  10.107  20.029   9.045  0.0605 -0.1553 -0.2806
26208W        W57424  18.267  16.427   0.446  0.0048 -0.0541 -0.0583
26209W        W57425  20.781   6.546   8.244  0.4064 -0.4760 -0.0179
26210W        W57426  18.983  20.372   8.141 -0.1797 -0.2425  0.1204
26211W        W57427   5.036  22.397   3.131 -0.1541 -0.0813  0.0393
26212W        W57428  24.747   8.643   0.437 -0.2375  0.0805 -0.1253
26213W        W57429  18.936   5.975   8.297 -0.1032 -0.2487  0.1749
26214W        W57430   9.356   1.865   1.367 -0.0424  0.1683 -0.2783
26215W        W57431   3.053   1.010   8.945  0.1819  0.1173  0.1030
26216W        W57432   2.379  26.554   1.640  0.2067  0.1090  0.0688
26217W        W57433  18.531  16.644   9.691  0.1898  0.2548  0.2163
26218W        W57434   0.319   9.821   3.317 -0.1222 -0.1926  0.3291
26219W        W57435   3.090   2.204   9.568 -0.0826  0.0525 -0.0287
26220W        W57436  20.878  26.934   0.374 -0.1377 -0.0893 -0.2011
26221W        W57437   0.215  25.479   8.515  0.1814  0.0191  0.0990
26222W        W57438  19.510  14.031   3.075 -0.1104 -0.1129 -0.0466
26223W        W57439  15.072  25.177   8.191  0.1467 -0.0435 -0.4078
26224W        W57440   3.004  25.129   8.970 -0.0086  0.2497  0.0082
26225W        W57441  14.062  17.284   2.506  0.0248 -0.1014 -0.0224
26226W        W57442  22.261   4.425  10.121 -0.1981  0.0115  0.2887
26227W        W57443   1.881   4.754   8.708 -0.2677  0.1359  0.0782
26228W        W57444  18.650  18.112   4.061  0.0770  0.0105 -0.3263
26229W        W57445   4.623  13.834   9.643  0.1423  0.5741 -0.0672
26230W        W57446   9.621  13.036   1.434  0.0955 -0.2999  0.3826
26231W        W57447  17.882  25.438   8.965  0.0070  0.0566  0.1694
26232W        W57448   1.673  11.210   9.369 -0.0676 -0.0279  0.0486
26233W        W57449  22.322  25.670   2.869 -0.1260 -0.2246  0.1528
26234W        W57450  16.242   3.695   0.811 -0.0272  0.1402  0.1861
26235W        W57451   0.250   8.006   8.316 -0.1309 -0.1913 -0.0008
26236W        W57452   2.299  26.793   9.388  0.2771 -0.0307 -0.0543
26237W        W57453   8.815   5.586   9.028  0.0241 -0.1627  0.2319
26238W        W57454  24.895   9.418   0.953 -0.2208 -0.0907 -0.1362
26239W        W57455  13.732  26.484   0.550 -0.1727 -0.3513  0.1655
26240W        W57456   7.241  13.272   2.090  0.0276  0.1945  0.1611
26241W        W57457  18.202  20.285   0.987 -0.0791 -0.0651  0.2331
26242W        W57458  15.144  12.574   9.267 -0.3872 -0.3686 -0.1984
26243W        W57459  10.051   9.906   8.403  0.1135  0.2981 -0.3188
26244W        W57460   6.740   8.875   7.226 -0.1320 -0.2082  0.2706
26245W        W57461  26.330  16.021   9.755  0.1683  0.2619 -0.0309
26246W        W57462   3.032   8.483  10.020 -0.2826 -0.1245 -0.3417
26247W        W57463  12.884   9.508   2.322 -0.0665 -0.1229  0.2235
26248W        W57464  19.812   6.252   8.064 -0.0779 -0.2723  0.0292
26249W        W57465  11.551  15.967   1.301  0.0364  0.0970  0.0719
26250W        W57466  24.336  14.764   1.158 -0.0627 -0.0217  0.0793
26251W        W57467  20.136   0.911   8.243 -0.2050 -0.3413 -0.2474
26252W        W57468  20.482  18.768   0.315 -0.2204 -0.0630  0.1668
26253W        W57469  10.342  12.113   7.780 -0.3841  0.1864  0.3475
26254W        W57470   0.511  26.170   0.805  0.1464 -0.1582  0.2108
26255W        W57471  18.264   6.960   3.162 -0.1678 -0.2087 -0.0104
26256W        W57472  24.031  12.312   7.808 -0.1000 -0.0148  0.3746
26257W        W57473  11.440  16.710   2.777 -0.1447  0.0295  0.0084
26258W        W57474  11.875   9.830   1.910  0.2661 -0.0055 -0.1592
26259W        W57475  22.825   7.055   9.630 -0.0220 -0.1862 -0.1614
26260W        W57476  19.425   6.395   7.801  0.1082  0.1208  0.2018
26261W        W57477  12.310   3.745   8.946  0.0525  0.1554  0.0854
26262W        W57478   1.580   8.313   2.131  0.2286  0.0358 -0.4851
26263W        W57479  20.981   5.157   1.125 -0.0068  0.0094  0.0317
26264W        W57480   5.448  16.563   6.892 -0.0848 -0.0087 -0.1978
26265W        W57481   1.253  20.202  10.049 -0.1498 -0.2547  0.1019
26266W        W57482  14.580  25.565   8.749  0.0136 -0.1256 -0.2630
26267W        W57483  19.601   9.191   7.450  0.1376  0.1167 -0.1789
26268W        W57484  11.001  12.306   9.949 -0.2870 -0.0735 -0.1860
26269W        W57485   4.791  21.876   3.862 -0.3322  0.1900 -0.0574
26270W        W57486   0.227  25.514   1.653 -0.4302 -0.0213  0.0737
26271W        W57487  25.295  22.204   7.747  0.2492 -0.1055  0.1494
26272W        W57488  24.280  14.395   8.750  0.0908 -0.3029  0.1130
26273W        W57489  18.058   1.337  10.469  0.1716 -0.3194 -0.2258
26274W        W57490  12.109   9.376   0.418  0.0536  0.0895  0.0709
26275W        W57491   4.746  15.263   1.220  0.1283 -0.0328  0.3165
26276W        W57492  25.403   4.171   2.213  0.2448 -0.2568 -0.3258
26277W        W57493  23.119   2.953   9.474  0.0550 -0.0468 -0.2605
26278W        W57494  11.908  16.480   1.405  0.0498 -0.2549 -0.0237
26279W        W57495   1.526  23.144   2.796 -0.0266  0.3389 -0.1047
26280W        W57496   4.236   0.530   9.509  0.0457 -0.1238  0.1019
26281W        W57497  14.309  13.953   1.223 -0.0046 -0.1763 -0.0221
26282W        W57498  18.733  14.870   9.763  0.0367 -0.0173  0.0318
26283W        W57499  25.356  24.285   0.691 -0.2769  0.1445 -0.0752
26284W        W57500  14.679  10.338   0.788 -0.1795  0.2625 -0.1562
26285W        W57501  10.102   3.515   2.590  0.3265  0.3942 -0.1541
26286W        W57502  13.113  10.405   9.738  0.2764  0.3601 -0.1178
26287W        W57503  16.050   0.911  10.246 -0.1562 -0.0399  0.1142
26288W        W57504  26.377  24.351   9.786 -0.0399 -0.1390  0.0410
26289W        W57505  26.239   7.041   8.866  0.0669 -0.1532 -0.2550
26290W        W57506   5.002   1.559   1.608  0.2958  0.0152  0.0298
26291W        W57507   7.525  27.546   2.149  0.0341  0.1349 -0.3003
26292W        W57508  16.813  21.247   7.934 -0.0426  0.1479  0.2448
26293W        W57509   3.412  17.271   7.666 -0.0893 -0.2972 -0.0163
26294W        W57510   6.112  22.631  10.542 -0.0473 -0.0400  0.3061
26295W        W57511   9.176  21.424   1.039  0.1341 -0.1384  0.1324
26296W        W57512   4.518   6.194   1.032 -0.2809  0.1479 -0.1723
26297W        W57513   6.951  12.894   8.445 -0.0728 -0.0584  0.2563
26298W        W57514   4.484   3.373   9.316 -0.1426 -0.1023  0.0193
26299W        W57515  22.710  10.786   2.343 -0.0826 -0.0176 -0.4425
26300W        W57516   6.413  15.563  10.135  0.0976  0.3285 -0.2839
26301W        W57517   0.767  20.913   1.387 -0.1298  0.2715 -0.1302
26302W        W57518   6.611  17.633   2.228  0.2808 -0.0205  0.1261
26303W        W57519   0.672   2.883   1.425  0.1434  0.0954 -0.4306
26304W        W57520   1.031   2.700   8.294 -0.0483 -0.0202  0.2020
26305W        W57521  12.196   3.374   3.359 -0.0082  0.4881  0.1993
26306W        W57522  19.783  10.505   2.593  0.1219 -0.1246  0.0618
26307W        W57523  18.890  16.270   0.570  0.1205 -0.4986  0.1989
26308W        W57524   7.170  15.622   7.311 -0.0212  0.1808 -0.0700
26309W        W57525   1.567   8.022   2.544 -0.0762 -0.1975 -0.2483
26310W        W57526  18.307   6.270   1.427  0.0516 -0.1311  0.0193
26311W        W57527   7.414   7.616   1.890  0.1071 -0.0597 -0.1200
26312W        W57528  14.751  27.549   9.108  0.1974  0.0652  0.2121
26313W        W57529  23.316  13.867   9.015 -0.3567  0.1804  0.1364
26314W        W57530   1.593  12.955   2.710 -0.0289  0.1401  0.2621
26315W        W57531  17.063   4.366   3.744  0.0036  0.3459  0.0989
26316W        W57532   5.900  11.889   2.018 -0.0529  0.0573 -0.0627
26317W        W57533  10.454  20.216  10.069 -0.2370  0.0463  0.1240
26318W        W57534  11.452  21.247   1.333 -0.1678  0.2783  0.1944
26319W        W57535   7.172   2.009   8.648  0.3766 -0.0095 -0.0509
26320W        W57536   2.179   8.630   9.444  0.1830  0.0358 -0.1721
26321W        W57537  10.792   1.243   1.621 -0.1198  0.1643 -0.0241
26322W        W57538   5.266  10.135   8.765  0.0676  0.0848 -0.0634
26323W        W57539  15.654  13.965   1.303 -0.0225  0.2191  0.2870
26324W        W57540   8.031   0.151   2.989  0.0295  0.1739 -0.2458
26325W        W57541  23.582  23.323   0.588 -0.2108  0.0564 -0.0501
26326W        W57542  25.376   3.488   0.686 -0.2131 -0.3375 -0.4267
26327W        W57543   8.274   2.674   1.596 -0.3710 -0.0283 -0.0886
26328W        W57544  16.443  17.505   9.091 -0.1490  0.0211  0.1289
26329W        W57545   2.002  19.078   7.702 -0.1864 -0.0212  0.0061
26330W        W57546  24.947  12.567   9.910 -0.0704 -0.1436 -0.2360
26331W        W57547  22.836   3.990   2.991  0.0555 -0.2554  0.2430
26332W        W57548  26.923   1.376   3.367  0.0958 -0.1304  0.2545
26333W        W57549   2.839  23.318   0.232  0.1859 -0.0133 -0.1125
26334W        W57550  12.490   3.078   1.905  0.1292 -0.0551  0.0363
26335W        W57551  13.901   8.525   0.912 -0.0330 -0.0888 -0.0669
26336W        W57552  15.393   3.278   0.335  0.1420  0.0602  0.0332
26337W        W57553  24.441   4.128   1.265  0.0870 -0.2840  0.0519
26338W        W57554  12.407  18.043   2.048 -0.0474 -0.0653  0.0479
26339W        W57555  25.362  21.706   9.892  0.1616 -0.0259  0.3887
26340W        W57556   3.922   4.610  10.528 -0.2613  0.0858 -0.0575
26341W        W57557  12.097  25.346   3.274  0.3712  0.0530  0.2802
26342W        W57558   9.343  21.991   7.555  0.1292 -0.0326 -0.4041
26343W        W57559   9.982  13.042   2.672 -0.3700 -0.2250 -0.2063
26344W        W57560   1.123   7.017   3.249 -0.1241 -0.0364  0.3485
26345W        W57561  13.186   5.795   1.400 -0.1106  0.2571 -0.0778
26346W        W57562   5.306  16.471   1.336  0.0620 -0.1375  0.1557
26347W        W57563  21.682  18.986   3.197 -0.2138 -0.0090  0.0605
26348W        W57564  19.894  19.842   0.699  0.3573  0.0082 -0.2283
26349W        W57565   4.337  16.352   2.348  0.2011 -0.1670  0.1245
26350W        W57566  22.090  15.033   0.483  0.0597  0.1792  0.0988
26351W        W57567   7.803   1.510   0.037  0.1260  0.1658 -0.1565
26352W        W57568  14.201  13.997   1.976 -0.2918  0.2062 -0.1400
26353W        W57569   2.623  21.044   9.915  0.1323 -0.0613 -0.0094
26354W        W57570  11.133  13.327   8.147  0.1664 -0.6048  0.1336
26355W        W57571   8.030   0.355  10.100 -0.3738  0.3144 -0.1754
26356W        W57572  22.532  26.307   1.319  0.1280  0.2854  0.1691
26357W        W57573  23.946  23.071   0.331 -0.1372 -0.0959  0.1753
26358W        W57574   1.491  13.219   8.290 -0.0410  0.1431  0.1179
26359W        W57575   3.677  18.896   2.940 -0.1810 -0.1786  0.0088
26360W        W57576  14.129  24.542   9.221 -0.0541  0.1165 -0.0161
26361W        W57577   1.528  22.281   0.462 -0.0302 -0.1408  0.2574
26362W        W57578   6.542   5.766   7.747  0.1454 -0.0859  0.0966
26363W        W57579   8.372  27.600   2.055  0.0659  0.1093  0.1741
26364W        W57580  19.255  25.050   0.140  0.3202 -0.1908 -0.1554
26365W        W57581  12.949  17.927   2.038 -0.0884  0.1266 -0.2074
26366W        W57582   1.881  20.106   8.232 -0.0685  0.1937  0.4959
26367W        W57583  25.182  27.038   1.307 -0.0532  0.0681  0.0746
26368W        W57584   9.982  17.610   8.107 -0.3816 -0.2253  0.1560
26369W        W57585  14.186  18.142   7.685 -0.2228  0.1206 -0.0382
26370W        W57586  23.344   9.982   2.090 -0.1518 -0.3110  0.0998
26371W        W57587  23.414   1.678   2.314 -0.0974  0.0277 -0.0007
26372W        W57588  15.983  22.645   8.206  0.0991  0.0392 -0.1884
26373W        W57589  14.025   7.612   8.774  0.1575 -0.2985 -0.0301
26374W        W57590   2.371   4.627   8.444 -0.1121 -0.0364 -0.2895
26375W        W57591  20.855  15.220   2.775 -0.1101 -0.1180 -0.0121
26376W        W57592  26.656   0.490   3.516  0.0853 -0.0378 -0.0425
26377W        W57593   1.831   3.394  10.138  0.0228  0.2010 -0.1912
26378W        W57594  21.712  24.390   2.967  0.0671 -0.1850 -0.1401
26379W        W57595  18.698  16.173   9.711  0.0345  0.2196  0.1447
26380W        W57596  25.445  17.299   2.732 -0.5962  0.0148  0.2970
26381W        W57597  22.025   3.016   1.995  0.1229  0.1171 -0.3047
26382W        W57598  18.648   9.573   7.947  0.2818 -0.0886  0.2075
26383W        W57599  17.098  19.432   0.955  0.2209  0.3908  0.2538
26384W        W57600  15.742   8.225   2.398  0.0430  0.1745 -0.1122
26385W        W57601   4.009   5.811   2.600  0.1226 -0.1276  0.1581
26386W        W57602  13.738  21.123   9.511  0.0971 -0.1017  0.2798
26387W        W57603   0.588  23.848   1.066 -0.2417  0.2571 -0.2821
26388W        W57604   8.002  14.843   0.513 -0.2810 -0.1395  0.1455
26389W        W57605  23.640  13.292   3.151  0.0227 -0.3776 -0.2593
26390W        W57606   5.185   6.753   2.119 -0.0397 -0.1215 -0.1799
26391W        W57607  19.625  25.176   8.665 -0.0196 -0.2349  0.1336
26392W        W57608   0.549  19.904   8.798  0.1215 -0.1953  0.4442
26393W        W57609   6.978  11.123   8.348  0.1689  0.1745 -0.1982
26394W        W57610  24.585  18.088   8.986  0.0408  0.3188  0.0943
26395W        W57611   0.757   5.122   2.657  0.0055  0.0514 -0.2656
26396W        W57612  14.823  23.208   7.404 -0.0020 -0.1366  0.1888
26397W        W57613   1.716  20.888   3.788 -0.1182 -0.3959 -0.1068
26398W        W57614   6.929  10.490   2.787 -0.0875 -0.0016  0.2299
26399W        W57615   3.719  26.751   2.697  0.4165 -0.1550  0.0000
26400W        W57616  15.444   3.697   1.910  0.1579 -0.1633  0.0123
26401W        W57617  16.511  10.997   1.724 -0.0584 -0.1056 -0.2217
26402W        W57618  11.110  21.990   8.789  0.4032  0.0623 -0.1851
26403W        W57619  23.097  15.702   9.421  0.0766  0.1290 -0.2918
26404W        W57620  20.125  10.094  10.369 -0.0990 -0.0944  0.0367
26405W        W57621   3.752  19.282   8.278  0.0061  0.1603 -0.0531
26406W        W57622  18.067  10.916   7.807 -0.0422 -0.1629  0.3422
26407W        W57623   6.573  26.567   1.892 -0.0017  0.1429  0.0979
26408W        W57624  25.164   8.609   2.815 -0.1401 -0.0881 -0.0232
26409W        W57625  18.285   8.576   1.731 -0.0099 -0.1945 -0.0852
26410W        W57626   3.707  16.748   2.833  0.1474  0.0738  0.0076
26411W        W57627  19.641  24.664   0.378 -0.1018  0.2797 -0.1009
26412W        W57628  18.605  16.881   3.919  0.1638  0.1987 -0.0263
26413W        W57629  16.588  26.911  10.507  0.1740  0.0943 -0.1131
26414W        W57630   1.930   3.907   1.463  0.4373 -0.3092  0.2037
26415W        W57631  14.906  11.871   9.594 -0.1113  0.1954 -0.1972
26416W        W57632  20.771  13.186   9.598 -0.1467  0.1284  0.0169
26417W        W57633  19.489  27.577   7.591  0.2006  0.0048  0.0552
26418W        W57634   4.251  26.158   2.292 -0.3559  0.0626  0.0479
26419W        W57635  19.947  12.493   2.701 -0.1423 -0.2702 -0.1379
26420W        W57636  22.489  22.110  10.122  0.0311 -0.2279 -0.1441
26421W        W57637  14.044  17.316   1.843 -0.0354 -0.3909 -0.0173
26422W        W57638   0.034  19.850  10.215  0.0207  0.0859 -0.2507
26423W        W57639  12.249   5.841   9.127 -0.0237 -0.0194 -0.0957
26424W        W57640   0.363  26.577   8.003 -0.0728 -0.1667 -0.1899
26425W        W57641   2.251  18.934   1.445 -0.0890 -0.2707 -0.1485
26426W        W57642   9.009  18.820   7.982  0.1544  0.1130 -0.0921
26427W        W57643   4.002  20.325   7.661 -0.1742  0.0947  0.0081
26428W        W57644  26.263  18.849   0.162  0.0019  0.0822  0.2708
26429W        W57645  10.127  11.243   0.522 -0.0454 -0.0432 -0.0827
26430W        W57646  21.005  17.832   3.643 -0.0525 -0.0207  0.0781
26431W        W57647  23.281  12.133   1.384  0.1097  0.2471 -0.1602
26432W        W57648  10.928  27.387   2.204  0.1932 -0.6217 -0.0173
26433W        W57649  27.618  19.039   9.551 -0.0377 -0.2174 -0.0395
26434W        W57650  19.440  22.885   3.061 -0.1891 -0.2565 -0.4156
26435W        W57651  16.310  18.191   2.166 -0.3111  0.3238 -0.1056
26436W        W57652   6.174   1.723   8.750  0.1127 -0.1863  0.0755
26437W        W57653   4.904  15.416   8.621 -0.0852 -0.1377 -0.0197
26438W        W57654  10.081   0.919   0.134 -0.2333 -0.2249  0.0145
26439W        W57655  17.114   6.010   0.145 -0.1598 -0.1373  0.5062
26440W        W57656  22.839  14.975   2.758  0.1131 -0.4502  0.1063
26441W        W57657  10.009  20.923   9.525 -0.4716  0.0967  0.1198
26442W        W57658  17.262   2.063   2.374  0.0428 -0.1144  0.5042
26443W        W57659  20.893  17.752   2.803  0.1713  0.1477 -0.3970
26444W        W57660  19.536  22.761  10.204 -0.1204 -0.0695  0.1281
26445W        W57661   5.923   3.281  10.396 -0.0945  0.4022  0.1327
26446W        W57662   1.788  21.932   1.285 -0.2142  0.0203 -0.0122
26447W        W57663  17.351   0.882   9.604 -0.0600  0.0416  0.1132
26448W        W57664  18.851  22.377   1.746  0.1109 -0.4120 -0.2453
26449W        W57665  13.118  17.464   2.311  0.2698  0.3063 -0.3001
26450W        W57666  22.753  16.656   2.237 -0.0842 -0.4510  0.2325
26451W        W57667  23.799  15.472   8.065  0.0160 -0.1987  0.0114
26452W        W57668   5.151  26.493   2.025  0.1357  0.2144  0.0336
26453W        W57669  15.757  16.444   1.584  0.1267 -0.0248 -0.1524
26454W        W57670  25.662   3.037   0.708  0.1833 -0.2748  0.3425
26455W        W57671   1.326   8.681   9.182  0.1772 -0.0646 -0.0768
26456W        W57672  15.057  13.964   2.635 -0.0529  0.0007  0.2068
26457W        W57673   7.140  24.967  10.137 -0.1926  0.4180  0.1350
26458W        W57674   4.435  20.209   2.642  0.0333 -0.1380  0.3001
26459W        W57675  18.774  20.056   3.787 -0.1947 -0.1953  0.2285
26460W        W57676   7.823   5.595   7.217  0.1026 -0.2196  0.1284
26461W        W57677  26.149  19.075   8.622  0.0792 -0.0096  0.0913
26462W        W57678  27.219  15.398  10.281  0.1131  0.1178 -0.0743
26463W        W57679   7.866  23.396   8.408  0.0823 -0.1943 -0.0833
26464W        W57680  22.062  24.850   7.432  0.1223 -0.1500 -0.1142
26465W        W57681  17.037  22.991   7.203  0.1661  0.5057 -0.0901
26466W        W57682   3.556  18.389   1.360 -0.3424 -0.4222 -0.3335
26467W        W57683  13.955  14.691   8.322  0.0677  0.0742 -0.3811
26468W        W57684  13.784  18.068  10.228  0.2075  0.1360 -0.0634
26469W        W57685   0.483  17.346   2.984 -0.0078  0.0890 -0.3293
26470W        W57686   9.818  10.866   0.316 -0.0784  0.0216 -0.0208
26471W        W57687  21.309   7.003   1.395 -0.5381  0.1269 -0.0694
26472W        W57688  24.299   4.685   2.010 -0.1902 -0.0883 -0.0054
26473W        W57689  22.669   4.165   0.200  0.2082 -0.0424  0.1209
26474W        W57690  18.037   5.334   6.903  0.0259 -0.1418  0.0875
26475W        W57691  17.832   2.706   9.079  0.2915 -0.2181  0.2643
26476W        W57692  15.859  21.374   0.788  0.2565 -0.2175 -0.4442
26477W        W57693  25.287  18.137   9.753 -0.1275 -0.1069 -0.2363
26478W        W57694  22.717  21.658   0.407  0.1406 -0.0241 -0.0975
26479W        W57695   7.162  17.192   0.674  0.1069  0.3175 -0.1877
26480W        W57696  17.756  25.156   7.989  0.0840 -0.0864  0.1557
26481W        W57697  15.566  18.846   7.918  0.0302  0.4022 -0.0931
26482W        W57698  12.684  13.345   2.309 -0.1040 -0.2433  0.0394
26483W        W57699  25.922   8.776   8.236 -0.1249 -0.2922  0.0762
26484W        W57700   5.418  11.884   8.957 -0.1363 -0.2172 -0.1069
26485W        W57701   9.548   4.185   2.630  0.1962 -0.0536  0.0591
26486W        W57702  10.376   3.041   2.402 -0.1955 -0.3951 -0.1073
26487W        W57703  22.439  19.860   1.031  0.2852 -0.1045  0.1713
26488W        W57704  11.314  14.366   2.226  0.1201  0.1644  0.3275
26489W        W57705  20.337  23.695   9.395 -0.3224 -0.0330 -0.2560
26490W        W57706  22.142  18.314   3.189  0.0034  0.2087  0.0669
26491W        W57707   7.498  26.996   1.199 -0.0001  0.1890  0.0484
26492W        W57708  14.464  16.029   0.656 -0.1340  0.1761 -0.1203
26493W        W57709  18.227  16.757   1.028 -0.1749 -0.0724  0.1724
26494W        W57710  19.414  15.708   2.940 -0.0280  0.2530  0.2549
26495W        W57711  25.763  18.606   8.492  0.2103  0.0523 -0.1885
26496W        W57712   2.547   9.165   8.705  0.0187 -0.0301 -0.0622
26497W        W57713   8.624   7.139   1.822  0.5501 -0.1863 -0.0021
26498W        W57714   9.683  24.377  10.152 -0.1945 -0.0095  0.0017
26499W        W57715   6.528   1.343   3.289 -0.0516  0.2749  0.3409
26500W        W57716  23.458   9.232  10.121  0.2383  0.0443  0.1026
26501W        W57717   1.344  18.968  10.004  0.3453  0.0801 -0.0736
26502W        W57718  10.695   7.923  10.445  0.2287  0.1987  0.2161
26503W        W57719  18.441  23.552   1.162  0.2916 -0.2914 -0.0664
26504W        W57720  13.397  26.748   1.804  0.0316 -0.3099 -0.0668
26505W        W57721   9.660  16.067   1.281  0.0506  0.2857 -0.2146
26506W        W57722  13.524   3.009   8.993 -0.2157  0.0390  0.0384
26507W        W57723  11.435  13.679   2.432 -0.2351  0.0048  0.2385
26508W        W57724  23.128  17.418   1.384  0.2355  0.1761 -0.1044
26509W        W57725   1.454  16.925   3.165  0.1125  0.2527  0.2892
26510W        W57726   0.889  20.008   2.128  0.0494 -0.0381  0.2013
26511W        W57727   5.807  26.567   1.208  0.3010 -0.2141  0.1323
26512W        W57728   8.077  24.743   2.634  0.0599 -0.0249  0.1229
26513W        W57729  25.612  10.507   1.384 -0.1710 -0.0759  0.0998
26514W        W57730  14.810  12.037  10.038  0.0571  0.1386  0.0896
26515W        W57731  10.890  23.169   8.882 -0.0817 -0.0158 -0.0890
26516W        W57732  16.270   5.348   1.644 -0.0980 -0.0940 -0.2115
26517W        W57733   7.736  15.904   8.043  0.0375  0.1049 -0.0442
26518W        W57734  24.981  12.160   7.988 -0.0205  0.0643  0.0733
26519W        W57735  10.334  24.094   1.203  0.3731  0.3514  0.1075
26520W        W57736   7.528  25.369   9.200  0.0732  0.1644 -0.1759
26521W        W57737  16.668  21.311   2.337  0.1860 -0.0648  0.2930
26522W        W57738  18.788  11.742   2.774  0.2096 -0.1543 -0.0919
26523W        W57739  12.190  10.246   9.846 -0.1058 -0.4191 -0.0414
26524W        W57740  11.029  12.284   2.925  0.4722  0.0231  0.0110
26525W        W57741  20.894  26.892   7.981 -0.0559 -0.1123  0.1373
26526W        W57742  26.937   2.928   4.012  0.4490 -0.2310  0.0757
26527W        W57743   2.087  11.416   0.870 -0.1419  0.2008 -0.3687
26528W        W57744  25.589  25.124   2.076  0.1463  0.1066  0.1936
26529W        W57745  18.633  26.941   0.277 -0.1598 -0.2213 -0.1222
26530W        W57746   7.129  25.555   3.949  0.0397  0.1677 -0.2543
26531W        W57747  26.548  10.079   8.391  0.0987 -0.0293 -0.0515
26532W        W57748   0.450  17.539   4.232 -0.1068 -0.2048  0.0278
26533W        W57749  17.019  12.986   8.494  0.0163 -0.2530  0.0400
26534W        W57750   4.561  14.112   0.418 -0.3308 -0.1226  0.0551
26535W        W57751  12.536  23.503   0.821 -0.3104  0.1976  0.1240
26536W        W57752   3.538   6.314   0.340  0.1405 -0.3380  0.0694
26537W        W57753  25.849  23.345   9.257 -0.1606  0.1992 -0.3103
26538W        W57754  20.911  10.786  10.427 -0.3492 -0.0046  0.0215
26539W        W57755  11.812  27.408   0.981 -0.0428  0.0948  0.1348
26540W        W57756   3.606  22.223   1.214  0.2569  0.1691  0.0411
26541W        W57757  23.823  11.945   3.742  0.0977  0.0297 -0.2628
26542W        W57758   0.245  25.269   2.575 -0.0061  0.0830  0.0364
26543W        W57759  15.863   7.673   9.061 -0.1512  0.3151 -0.1514
26544W        W57760  25.633   9.652   9.781 -0.2452 -0.0450 -0.0149
26545W        W57761  18.093  12.853   8.353  0.1133  0.2751  0.1009
26546W        W57762  19.669  10.926   7.056  0.0140  0.1903  0.4822
26547W        W57763  14.089  19.534   2.436  0.0880  0.3539  0.1365
26548W        W57764  24.029  14.847   1.634  0.0325 -0.2912  0.0439
26549W        W57765   8.532  14.258   0.704  0.0952 -0.1882  0.2906
26550W        W57766  10.397   6.712   1.820 -0.0069 -0.1529  0.1753
26551W        W57767  22.330   9.114   9.488 -0.0598  0.0206 -0.0010
26552W        W57768  27.454  25.204   8.087 -0.1254  0.0277  0.0786
26553W        W57769  26.073   8.528   2.780 -0.0346 -0.3065  0.5252
26554W        W57770  21.526   4.455   3.025 -0.4278  0.3450 -0.2409
26555W        W57771   6.641  16.203   0.224  0.2131  0.0401 -0.1316
26556W        W57772  24.377  11.313   3.344 -0.0651  0.0946 -0.0597
26557W        W57773  13.777  10.313   2.844  0.2474  0.0879 -0.0236
26558W        W57774  24.997  24.702   7.122 -0.3233 -0.0313  0.2489
26559W        W57775   3.849  10.241   0.318 -0.2104 -0.1625 -0.0999
26560W        W57776   1.022  19.641   1.761 -0.0300  0.2916  0.0590
26561W        W57777  12.413  18.135   3.105  0.2367  0.2923  0.1572
26562W        W57778  19.138   2.759   2.687 -0.0667 -0.0170 -0.0941
26563W        W57779  13.840  24.867  10.368 -0.0791  0.1159 -0.1425
26564W        W57780  15.964  20.873   9.205  0.0252 -0.1576 -0.0042
26565W        W57781  11.869   6.217   0.659 -0.1138  0.0592 -0.5029
26566W        W57782  10.650  24.966  10.331 -0.0610 -0.0206  0.0234
26567W        W57783   5.076  22.904   0.243 -0.1750  0.0295 -0.1360
26568W        W57784   1.460   7.989  10.539 -0.0001 -0.2398 -0.0823
26569W        W57785  19.166  22.296   2.654 -0.0973 -0.1291 -0.0573
26570W        W57786  20.444  16.374   8.568 -0.1586 -0.1088  0.1501
26571W        W57787  20.977   4.026   8.167 -0.4057 -0.0807  0.4922
26572W        W57788  26.697   2.075   2.068 -0.1409  0.0116  0.1335
26573W        W57789   6.280   0.701  10.044 -0.0566 -0.0999 -0.1648
26574W        W57790  23.139   3.773  10.540 -0.0970 -0.0004  0.2537
26575W        W57791  21.469  20.579   3.151 -0.0340 -0.4450 -0.0813
26576W        W57792  11.078   4.682   8.627  0.2241  0.1962 -0.2187
26577W        W57793  18.552  11.507   0.258  0.1236  0.2664 -0.0720
26578W        W57794  24.514  18.638   1.940  0.0516  0.1077  0.0579
26579W        W57795  16.764  14.206   8.528  0.0988 -0.0952  0.1605
26580W        W57796   9.643  22.480   8.139  0.1951  0.1103 -0.0994
26581W        W57797   9.311  13.013  10.508 -0.0909  0.1579  0.1274
26582W        W57798  23.439   4.696   2.125 -0.3294  0.3592  0.1661
26583W        W57799  27.026  14.832   8.156  0.0321  0.0024 -0.1517
26584W        W57800   9.992   6.229   7.227  0.1912  0.3303  0.1804
26585W        W57801  19.685  17.197   9.309 -0.1920 -0.3024  0.0408
26586W        W57802  24.522  25.732   1.500 -0.0515 -0.1779  0.1703
26587W        W57803  20.991   9.799   3.492 -0.2065  0.2324 -0.2448
26588W        W57804  24.366  13.513   2.561  0.1082 -0.2212 -0.0622
26589W        W57805   7.680  17.066   1.417 -0.1932  0.2049  0.0022
26590W        W57806  13.965   8.360   0.149  0.1696 -0.1861 -0.1584
26591W        W57807   4.722   8.648   2.204  0.1187  0.1396  0.1699
26592W        W57808  14.309   2.472   8.378 -0.2141 -0.0657 -0.2142
26593W        W57809  15.155  13.060   7.574  0.1124  0.1493  0.0235
26594W        W57810   3.021  25.295   9.983  0.1012 -0.0082  0.0065
26595W        W57811  25.748  12.701   1.276 -0.2428  0.0845 -0.0116
26596W        W57812   7.217  26.714   2.646  0.1758 -0.1920  0.3343
26597W        W57813  22.308  24.970   9.655 -0.0330 -0.1870  0.1045
26598W        W57814  24.238   3.296   1.109 -0.0900  0.1270  0.3318
26599W        W57815  10.264  27.397   0.243 -0.2898 -0.1239 -0.1213
26600W        W57816  22.624  26.074   0.051 -0.3305 -0.0385  0.2311
26601W        W57817  16.406  25.489   2.822  0.4994 -0.1447 -0.0371
26602W        W57818  20.403  14.337   1.001 -0.0076 -0.2674  0.1380
26603W        W57819   1.742   2.598   1.688 -0.0566 -0.0650  0.1188
26604W        W57820  13.522  15.474   0.897  0.1279  0.0798  0.2889
26605W        W57821  27.422  22.421   3.501  0.3099 -0.0627 -0.0041
26606W        W57822  24.805  18.285   7.529 -0.0728 -0.3485 -0.0499
26607W        W57823  24.053   1.788   1.161  0.2634 -0.2111  0.0899
26608W        W57824  27.166  18.776   8.650  0.0889  0.1486 -0.1098
26609W        W57825  22.743   4.216   3.387  0.2369 -0.2119  0.2457
26610W        W57826  24.480   8.645   1.979 -0.0402  0.1586  0.0936
26611W        W57827  14.409  11.747  10.245 -0.1353 -0.0143 -0.0703
26612W        W57828   2.060   2.295   8.308 -0.1575 -0.0825  0.2817
26613W        W57829   9.221  15.733   2.603 -0.0685  0.2340  0.0203
26614W        W57830  12.717  26.393   9.697 -0.0214 -0.3262 -0.2324
26615W        W57831  11.510   0.133  10.051 -0.0722 -0.2316  0.1819
26616W        W57832  16.482  21.062   0.460  0.0273  0.2350  0.2631
26617W        W57833  15.772  25.873   0.510  0.0319 -0.1280  0.0204
26618W        W57834  27.594   2.569   1.148  0.1020 -0.1796  0.0195
26619W        W57835  13.015   3.873   9.680 -0.0762  0.3213 -0.0503
26620W        W57836  10.887  18.062   8.897  0.3028  0.0926  0.1610
26621W        W57837  20.505   1.570   2.612  0.0149 -0.2751  0.2230
26622W        W57838  18.131  19.023   8.782 -0.1497 -0.0661  0.0895
26623W        W57839   0.501  25.948   8.597  0.1141  0.2668 -0.1163
26624W        W57840  15.996  24.318   0.170 -0.2876  0.3652  0.0207
26625W        W57841  12.687   2.688   9.168 -0.2301  0.3500  0.1555
26626W        W57842  19.198  14.057   8.229 -0.0395  0.0264  0.1284
26627W        W57843  17.132   9.032   2.429  0.0674 -0.2855  0.0166
26628W        W57844  25.049  11.227   8.353  0.1054 -0.0830 -0.0332
26629W        W57845  13.399  23.979   0.287  0.0325  0.0803 -0.2525
26630W        W57846   4.320  17.840   0.645  0.1280 -0.0610 -0.2553
26631W        W57847   2.720   0.416   9.517 -0.0743  0.2299  0.3993
26632W        W57848   0.601  22.350   1.185  0.1816 -0.1896 -0.3180
26633W        W57849  26.073   3.069   1.741 -0.0437  0.0554 -0.0764
26634W        W57850  11.045  12.631   3.316  0.0141 -0.0060  0.1195
26635W        W57851  23.359  13.040   0.115  0.2843 -0.1173 -0.0229
26636W        W57852  15.132  13.551   7.517 -0.2612  0.0006  0.1697
26637W        W57853   9.167   2.112   9.562 -0.0846  0.3989  0.2757
26638W        W57854  10.078   1.442   9.439 -0.0898 -0.2093  0.0378
26639W        W57855  10.958  13.214   9.439  0.1472 -0.0192 -0.0377
26640W        W57856  25.760  15.052   0.389 -0.1904  0.0118 -0.3276
26641W        W57857   1.280   3.423   1.618 -0.0308  0.2798 -0.0485
26642W        W57858  22.037  16.474   8.105 -0.0002 -0.1305  0.2066
26643W        W57859   2.976  13.598   3.654  0.1309 -0.0936  0.1958
26644W        W57860  18.216   9.846  10.525  0.1206  0.2567  0.0986
26645W        W57861  13.391  21.351   9.175  0.0873 -0.1888  0.1703
26646W        W57862   1.175  13.923   0.690  0.0496  0.0993  0.0892
26647W        W57863  25.793  26.301   8.175  0.1959 -0.0206  0.0257
26648W        W57864  16.840  11.708   9.675 -0.1411 -0.0539 -0.1050
26649W        W57865   2.296   2.513   1.091  0.1442  0.0952 -0.4154
26650W        W57866  11.852  18.029   0.542 -0.2444  0.1233  0.1088
26651W        W57867   5.033  18.690   2.939  0.1274  0.0302 -0.2352
26652W        W57868   5.742  10.937   9.461  0.2494  0.1884 -0.1799
26653W        W57869  18.250  25.828   0.935  0.4040 -0.2543  0.1457
26654W        W57870  16.780  14.968   7.565  0.2598 -0.2710 -0.2011
26655W        W57871  24.732  25.786   2.077  0.2134 -0.1182 -0.0660
26656W        W57872  16.309  15.152   3.145  0.0624  0.0075  0.1301
26657W        W57873   8.383  21.391   9.562 -0.0463  0.0171 -0.2574
26658W        W57874  23.021  18.053   9.082 -0.2887  0.1560 -0.1483
26659W        W57875   6.320  21.397   2.151  0.2073  0.0883  0.0235
26660W        W57876  20.482   1.811   8.599  0.1782 -0.0846  0.0529
26661W        W57877  14.245  20.522   8.928 -0.1291 -0.1760  0.0809
26662W        W57878   7.995   8.439   2.219 -0.1213 -0.1855  0.0047
26663W        W57879  18.601  11.244   8.937  0.0738  0.1563  0.0559
26664W        W57880  15.641  14.460   8.125  0.0456 -0.2060 -0.2421
26665W        W57881  18.356  16.153   0.879 -0.0784  0.2158 -0.0303
26666W        W57882   8.802  18.209   8.318  0.1130 -0.0933 -0.0773
26667W        W57883  14.353  26.378   8.157 -0.2265 -0.1326  0.2545
26668W        W57884  24.239   3.551   8.168  0.0982  0.0913 -0.1526
26669W        W57885   8.007  24.392   7.739  0.0901  0.1200 -0.1721
26670W        W57886  20.623  20.968  10.333 -0.0796  0.4035  0.3177
26671W        W57887   1.600  19.269  10.305  0.1629  0.5798  0.0672
26672W        W57888  11.098  15.669   7.716  0.1612  0.3310 -0.2373
26673W        W57889  26.742  22.622   2.901 -0.4169  0.0282 -0.2519
26674W        W57890   9.355   9.004   0.711  0.0857  0.2404 -0.4748
26675W        W57891  10.064  10.650   0.731 -0.0335 -0.4205 -0.0477
26676W        W57892  26.493  11.284  10.068  0.1572  0.0133 -0.0597
26677W        W57893  18.622  13.662   7.987 -0.0899 -0.0150 -0.1068
26678W        W57894   5.052  16.200   9.573 -0.0946 -0.1240 -0.0256
26679W        W57895  15.341  12.778  10.319  0.2326 -0.1521  0.0830
26680W        W57896   4.293  23.368  10.482 -0.2645 -0.1666 -0.0533
26681W        W57897  12.412  26.888   2.790  0.1710 -0.3294 -0.0275
26682W        W57898  23.501  10.401   7.332  0.0886  0.2252 -0.2709
26683W        W57899  15.692  26.030   3.201  0.0826  0.0586 -0.0712
26684W        W57900  19.660   0.264   8.425 -0.1398 -0.2495  0.1337
26685W        W57901   7.354   7.102   0.236 -0.5115 -0.0088 -0.0671
26686W        W57902  15.912   6.719   8.888 -0.0404 -0.1185 -0.1109
26687W        W57903   7.156  21.771   2.996 -0.0825  0.1063  0.0191
26688W        W57904  18.145  27.179   8.906 -0.0131  0.0467 -0.0377
26689W        W57905   7.450   2.340   1.738  0.0692  0.0143 -0.1551
26690W        W57906  21.618   7.781   1.563  0.0141 -0.0870 -0.3227
26691W        W57907  11.265  18.042   2.274 -0.1380  0.1892 -0.1878
26692W        W57908   9.845  24.825   9.882  0.0299  0.1253 -0.2369
26693W        W57909   0.938   2.037   7.850  0.1671  0.3211 -0.0834
26694W        W57910  26.976   9.425   2.456  0.0178  0.2384 -0.1064
26695W        W57911  26.024   9.689  10.042 -0.0036  0.0125 -0.2397
26696W        W57912  20.456  17.161   2.516 -0.1517  0.2349  0.1646
26697W        W57913  21.852  11.024   8.117 -0.1941  0.1475 -0.0124
26698W        W57914   7.672   2.140   8.738 -0.4599 -0.1506  0.2943
26699W        W57915   8.972  20.637   3.046 -0.0067 -0.3794  0.1592
26700W        W57916  27.155  13.776   9.389 -0.2199  0.0039 -0.2514
26701W        W57917   0.966  23.031   2.657 -0.2959 -0.0974  0.0041
26702W        W57918   6.699   2.828   2.862 -0.1363 -0.5326  0.1856
26703W        W57919  10.281  10.724   2.988  0.1642 -0.1360  0.0144
26704W        W57920  23.288   4.165   8.343 -0.1313 -0.3419 -0.1899
26705W        W57921  17.133  23.945   1.611 -0.0810  0.0246 -0.1579
26706W        W57922   4.736   3.916   1.985  0.3032 -0.2161 -0.3008
26707W        W57923   9.376  21.229   3.555  0.0359  0.2692  0.4075
26708W        W57924  16.919  23.154   1.949 -0.2072 -0.1207 -0.2608
26709W        W57925  17.301  26.880   0.229 -0.2469  0.2450  0.1450
26710W        W57926   7.168  12.513   1.513 -0.0055 -0.3790  0.0856
26711W        W57927  16.523  20.284   9.570 -0.3335  0.0438 -0.1388
26712W        W57928  11.245  14.051   0.799 -0.1648  0.1200 -0.0977
26713W        W57929  12.557  19.007   8.582  0.1140 -0.1446 -0.4889
26714W        W57930   6.812  24.545   2.052 -0.1942  0.2699  0.0134
26715W        W57931  19.062   3.049  10.048 -0.0713  0.0815  0.3477
26716W        W57932  14.350   0.684   9.637  0.2937  0.2137  0.3156
26717W        W57933   3.250  23.926   7.723 -0.3375  0.1896  0.0865
26718W        W57934   1.362   2.119   2.757 -0.0960 -0.1924 -0.0179
26719W        W57935  27.184  14.363   9.001 -0.1132  0.0071 -0.0931
26720W        W57936  20.434   4.412   9.324 -0.0530 -0.1503  0.0650
26721W        W57937  20.669   5.489  10.487  0.0039  0.1405  0.0383
26722W        W57938  17.169  24.454   1.820 -0.0374 -0.3949  0.2286
26723W        W57939   9.996   3.988  10.117  0.4722 -0.6103  0.0547
26724W        W57940  20.187  17.467   1.687  0.0842  0.3572 -0.0061
26725W        W57941  11.862  16.908  10.142 -0.0414 -0.1143  0.1380
26726W        W57942  13.716  27.341   0.540  0.2178 -0.0184  0.2006
26727W        W57943  26.136  26.001   2.200 -0.2909  0.1989 -0.1342
26728W        W57944   5.705  19.700   8.473 -0.0094  0.2525 -0.0070
26729W        W57945  15.515   0.428   8.849  0.2059 -0.3819  0.0465
26730W        W57946   4.312  16.826   8.229 -0.2339 -0.0967  0.0934
26731W        W57947   8.083  12.855   1.589 -0.1239 -0.0741 -0.4151
26732W        W57948   1.368  11.280   1.634  0.2952 -0.1891  0.0004
26733W        W57949   7.522   0.564   9.250 -0.0135 -0.0675  0.1001
26734W        W57950  17.104   9.308   8.825 -0.0453  0.1536  0.2864
26735W        W57951  20.178   1.697   9.222  0.1132  0.1625 -0.1156
26736W        W57952   8.412   4.692   0.345  0.1387 -0.1223  0.0811
26737W        W57953  18.706  25.915   8.766 -0.1997  0.1393 -0.3013
26738W        W57954   2.474  24.459   0.239 -0.1203  0.3288 -0.0041
26739W        W57955   8.527  25.833   1.124 -0.2997 -0.1858  0.0511
26740W        W57956   8.988  20.213   7.564 -0.2837 -0.1161  0.3079
26741W        W57957   0.429  16.369   2.606  0.1272  0.0697  0.0260
26742W        W57958   8.574   0.900   9.265  0.2426 -0.0798  0.3204
26743W        W57959  27.136  19.017   2.226 -0.3114 -0.0242  0.1251
26744W        W57960   7.300  23.413   3.865  0.0146 -0.3163 -0.4031
26745W        W57961  10.033  14.060   0.669 -0.0639 -0.1041  0.1178
26746W        W57962  20.747   5.094   3.713  0.0120 -0.0957  0.0668
26747W        W57963   4.824  17.808   9.139  0.4490  0.2434  0.0326
26748W        W57964  17.321  17.321  10.379 -0.0995  0.0074  0.0088
26749W        W57965  19.847  14.400   8.965  0.0795 -0.3066  0.0716
26750W        W57966   8.366  13.575   2.680 -0.0259 -0.0813 -0.3046
26751W        W57967  13.190  18.481   8.098  0.0665 -0.2371  0.1798
26752W        W57968  25.031  21.241   0.575 -0.3063 -0.0959 -0.0240
26753W        W57969  15.356   6.113   8.221 -0.1194 -0.0184 -0.3050
26754W        W57970   6.373  24.214   1.924 -0.1282 -0.1924  0.0026
26755W        W57971   0.208  13.168   8.314 -0.0304  0.2164  0.3000
26756W        W57972  24.582   7.967   8.987  0.1752  0.2523 -0.2086
26757W        W57973   5.793   0.827   9.780 -0.2783  0.4218  0.0413
26758W        W57974   7.143   2.652   3.120  0.2111  0.0606 -0.1603
26759W        W57975   5.835   7.243   1.858 -0.0500  0.2077 -0.0136
26760W        W57976  21.969  23.634   8.302  0.0622  0.1256 -0.2191
26761W        W57977   6.983   9.506   8.648  0.2796 -0.0180  0.0700
26762W        W57978  17.663  11.305   2.904 -0.2439  0.4078 -0.0380
26763W        W57979   5.025  17.036   1.594 -0.0060 -0.1684  0.2056
26764W        W57980  27.544  24.692   8.893 -0.1218  0.0460  0.0797
26765W        W57981  16.247  14.826   1.354 -0.2149  0.0199 -0.0869
26766W        W57982  16.638  14.478   7.615  0.0340  0.0412  0.0363
26767W        W57983  21.214  14.340   8.426 -0.0077  0.3327 -0.2152
26768W        W57984  24.443  16.602   2.537 -0.1181 -0.2475 -0.0092
26769W        W57985  10.953  23.159   1.327  0.3187 -0.1218  0.0650
26770W        W57986  19.914   8.308   1.796 -0.0669  0.0769  0.0197
26771W        W57987   0.407  24.882   9.237 -0.0446 -0.0160 -0.0456
26772W        W57988  13.213  10.057  10.117 -0.4220 -0.1009  0.1247
26773W        W57989  20.087  16.320   7.647  0.2799 -0.1461 -0.0790
26774W        W57990  17.843  11.320   2.431  0.0307 -0.1943 -0.0070
26775W        W57991  19.997  12.433   7.807 -0.0138  0.2584 -0.1347
26776W        W57992  17.818  27.467   2.586  0.2806  0.1580  0.0423
26777W        W57993  25.336   4.470   9.172 -0.2317  0.0191  0.0918
26778W        W57994  27.232  20.666   1.375 -0.3624  0.4472 -0.0560
26779W        W57995  11.990  27.411   8.161 -0.0875 -0.3195  0.0726
26780W        W57996   8.581   8.109   2.290  0.4150 -0.0736 -0.0405
26781W        W57997  20.304  11.945   0.198 -0.1668 -0.1875  0.1921
26782W        W57998   1.273  18.361   8.549  0.0727  0.0173 -0.1200
26783W        W57999  10.047  19.075   2.182  0.1185 -0.0600  0.1281
26784W        W58000  25.761  12.607   7.686  0.0055  0.1145  0.1434
26785W        W58001   2.202   4.328   2.865 -0.2565 -0.1513 -0.2905
26786W        W58002   5.383   1.386   3.718  0.0053 -0.1641 -0.2374
26787W        W58003  18.132  22.451   3.002 -0.3410  0.0881 -0.0695
26788W        W58004   4.792  11.275   9.311  0.0395 -0.1287 -0.1290
26789W        W58005  20.363   9.127   8.920 -0.1974  0.0261 -0.3636
26790W        W58006   9.982   0.574   0.481 -0.0561  0.1470 -0.1225
26791W        W58007   8.277   6.090   7.548  0.2055  0.0616 -0.2766
26792W        W58008  21.653  27.410   7.819  0.1850 -0.0496 -0.0605
26793W        W58009  19.330   6.949   0.579  0.1791  0.1141 -0.0309
26794W        W58010  16.216  15.017  10.211  0.0946 -0.0058 -0.0086
26795W        W58011  24.205  27.007  10.533  0.1327 -0.3237 -0.3683
26796W        W58012  13.765  22.121   7.962  0.6088 -0.2654 -0.3420
26797W        W58013   6.158  15.201   0.693  0.0796 -0.2352  0.0947
26798W        W58014   7.438  19.008   1.606 -0.1297  0.1638  0.2509
26799W        W58015   3.300   6.753   9.587 -0.0346 -0.0589 -0.0152
26800W        W58016  26.998  22.013   8.819 -0.2263 -0.0125 -0.0439
26801W        W58017  19.785  17.289   1.276  0.0712  0.0105 -0.2684
26802W        W58018  26.404  10.345   0.984  0.2559  0.0128  0.0082
26803W        W58019   2.773  27.599   9.836 -0.1201 -0.0528 -0.1206
26804W        W58020   2.037   5.135   9.070  0.2918 -0.0412 -0.1210
26805W        W58021   4.320   4.102   1.277  0.4307 -0.3350 -0.2130
26806W        W58022   6.361   7.361   9.095 -0.0577  0.2486 -0.1550
26807W        W58023   4.892  24.645   3.399  0.1153 -0.0835 -0.3305
26808W        W58024  10.056   5.593   9.665 -0.4288 -0.0549  0.0255
26809W        W58025  20.201  18.403   0.352  0.0862 -0.0919  0.0102
26810W        W58026  23.496  26.629   0.722  0.0916  0.1924 -0.0517
26811W        W58027  21.309  16.535   0.080 -0.2217 -0.3174  0.1390
26812W        W58028   9.804   3.422   0.921  0.1205  0.0668 -0.0625
26813W        W58029   0.297  17.113   3.385 -0.1895 -0.1034 -0.3139
26814W        W58030   0.027  11.275   1.611 -0.0949  0.1292 -0.0943
26815W        W58031  22.779  25.436   7.882  0.2801 -0.1807 -0.1826
26816W        W58032   0.109   1.299   1.592 -0.0739 -0.0458  0.3221
26817W        W58033   1.500  16.250   1.587 -0.0694  0.1284 -0.0672
26818W        W58034   5.728  14.897   2.180 -0.3057  0.0604 -0.2502
26819W        W58035   1.708  27.148   0.525  0.1632 -0.1887  0.0153
26820W        W58036   3.503   8.007   2.927 -0.1120  0.2040 -0.2786
26821W        W58037  21.005   1.009   8.663  0.1484  0.1758  0.0192
26822W        W58038   3.834  17.749   0.670 -0.0112  0.0284 -0.3402
26823W        W58039  18.141  24.251   0.244  0.0336 -0.1316  0.1846
26824W        W58040  16.060   6.729   0.496  0.2482  0.4059 -0.0639
26825W        W58041  19.903  24.815   3.029  0.2184  0.0218  0.0347
26826W        W58042  13.236  18.570   3.363 -0.0079  0.0412  0.0650
26827W        W58043  21.514  12.178   9.448 -0.0127 -0.2420 -0.2289
26828W        W58044  19.895  22.903   2.843  0.3471 -0.2894  0.0830
26829W        W58045   9.484  13.362   1.084 -0.0604  0.2519 -0.0522
26830W        W58046   0.892   5.514   0.262 -0.1773  0.0257 -0.0777
26831W        W58047   8.888  15.721   9.024 -0.0530  0.0711 -0.2388
26832W        W58048  21.563  16.917   2.677 -0.0907  0.0493 -0.4298
26833W        W58049   4.629  20.899   2.824  0.4020  0.0606 -0.0005
26834W        W58050  26.052   1.590   8.190  0.0920  0.0366  0.0060
26835W        W58051  26.177   3.845   8.296  0.2364 -0.2023 -0.1127
26836W        W58052  20.940  17.159   0.973  0.1412 -0.1049  0.0658
26837W        W58053   5.756  25.208   8.745 -0.0783  0.1065 -0.1105
26838W        W58054  24.911  23.758   4.045 -0.1766 -0.0385 -0.2068
26839W        W58055  11.948  18.021   2.257 -0.1939 -0.2230 -0.2327
26840W        W58056  24.543   4.284   2.183  0.0410  0.2554 -0.2803
26841W        W58057  11.570  18.520   0.997 -0.2099 -0.2670  0.0444
26842W        W58058  23.768   7.264   8.310  0.2609 -0.1026  0.1483
26843W        W58059  26.818   7.279   7.671  0.0546  0.2833  0.1746
26844W        W58060   7.204   0.904   2.270  0.0235  0.1331  0.3066
26845W        W58061  12.444   9.957   1.032 -0.1072  0.0989  0.1850
26846W        W58062  26.833  26.825   8.873 -0.0861 -0.2606 -0.1446
26847W        W58063  12.688  26.857   1.326 -0.0475 -0.0536 -0.0483
26848W        W58064  14.279   3.937   3.213  0.0395 -0.0012 -0.3244
26849W        W58065  15.054   0.317   9.296 -0.1836 -0.1152  0.0297
26850W        W58066   9.220  26.487   9.100  0.0294 -0.1528  0.2537
26851W        W58067  18.490   5.183   9.573 -0.2730  0.3395 -0.0198
26852W        W58068  20.759   1.275   0.935  0.1773  0.1574  0.1583
26853W        W58069   0.847   3.374   3.125 -0.0781  0.1009  0.0069
26854W        W58070  14.754  10.675   8.678 -0.0668 -0.0300  0.1664
26855W        W58071  25.411   4.817   7.951 -0.2227 -0.1960 -0.1750
26856W        W58072  17.614   1.688   9.599 -0.0945 -0.2616 -0.3578
26857W        W58073  23.258  23.137   8.792 -0.1785  0.0901  0.0290
26858W        W58074  12.992  24.471   8.709  0.3128  0.2877 -0.0884
26859W        W58075  24.335  24.410   3.469 -0.1144 -0.1136 -0.5415
26860W        W58076  13.353  21.146   0.873  0.2333  0.1754  0.1357
26861W        W58077  22.951  13.345   1.093 -0.1335  0.1071 -0.1566
26862W        W58078  23.549   5.032   2.450  0.3877  0.2112  0.1709
26863W        W58079   8.212  27.529   1.123  0.4727  0.1855 -0.1021
26864W        W58080  20.784   0.636   2.572  0.0549  0.1754  0.1837
26865W        W58081  16.162  15.410   9.927  0.0947 -0.1825  0.0827
26866W        W58082   9.356  18.656   0.224  0.0913  0.2216 -0.3385
26867W        W58083  25.583  21.127   2.434  0.2820 -0.2507 -0.2251
26868W        W58084  26.220  21.442   9.280  0.3022 -0.4578 -0.0823
26869W        W58085  25.408   2.903   9.469  0.2691  0.2305  0.0350
26870W        W58086  27.516  23.974   0.915 -0.0254  0.3928 -0.0839
26871W        W58087  17.239   6.168   1.933 -0.0965  0.0227 -0.2019
26872W        W58088   6.785   8.875   8.120  0.0641  0.1654 -0.3243
26873W        W58089  21.652  21.412   9.321  0.0151  0.0020  0.3794
26874W        W58090  12.374   8.911   2.910 -0.1731 -0.0360 -0.1564
26875W        W58091   3.447  22.565   8.877 -0.0689 -0.2501 -0.1193
26876W        W58092  17.536  14.205   0.791 -0.1166 -0.0889  0.2935
26877W        W58093   2.193  25.835   0.982 -0.2180  0.2417  0.1293
26878W        W58094  11.024  15.159   9.257 -0.2015  0.3106  0.0851
26879W        W58095   4.330  25.586   1.534  0.1127 -0.1843 -0.0624
26880W        W58096  17.527   7.271   7.246  0.1994  0.1146  0.1712
26881W        W58097   0.871   5.413  10.123 -0.0130  0.0282  0.2078
26882W        W58098   8.664   5.268   2.186  0.0930 -0.0798 -0.1846
26883W        W58099  10.277  17.581   2.111 -0.0217 -0.1673 -0.2492
26884W        W58100   7.354  25.190   9.729  0.1067 -0.2537  0.1027
26885W        W58101  10.446   1.162   8.424 -0.0057  0.1466 -0.2476
26886W        W58102  25.558   3.775   8.213 -0.0648 -0.1266  0.0505
26887W        W58103  18.308  14.569   9.066  0.0628 -0.1155 -0.0162
26888W        W58104   0.394  26.561   0.496  0.2495  0.2156  0.1539
26889W        W58105  23.442  24.627   8.883 -0.1403  0.0749 -0.3533
26890W        W58106   3.117   2.486   0.697 -0.1189  0.4206  0.1451
26891W        W58107  25.318  25.954   2.571  0.0516  0.0146 -0.2069
26892W        W58108   1.459  24.123   1.991  0.0123 -0.2719 -0.0010
26893W        W58109  23.649   8.362   0.029  0.0080  0.0448  0.0547
26894W        W58110  26.131   8.271   3.685  0.2842  0.0555  0.1325
26895W        W58111  20.551  18.980  10.323 -0.0072 -0.0587 -0.1039
26896W        W58112  21.655   5.471   0.006  0.1659 -0.2845 -0.0183
26897W        W58113   9.232   8.550   8.535  0.0313  0.3878  0.0960
26898W        W58114  16.944  12.520   0.424 -0.0516  0.2671 -0.0403
26899W        W58115  26.758   0.338   9.241  0.2799 -0.0503 -0.1485
26900W        W58116  10.995  12.133   8.313 -0.0766  0.1750  0.1758
26901W        W58117  19.971  25.413   1.844  0.2287 -0.0166 -0.0348
26902W        W58118   2.033   8.363   0.605 -0.0391  0.1432 -0.0513
26903W        W58119   7.467   5.873   2.402  0.1056 -0.0516 -0.0099
26904W        W58120   8.660  21.753   8.634  0.0369  0.0859  0.1856
26905W        W58121  19.385  24.234   0.433 -0.1952  0.0161  0.0723
26906W        W58122   6.180  14.750   8.632 -0.0801  0.0365 -0.2587
26907W        W58123   5.134  26.160   0.515 -0.0329 -0.1521 -0.3784
26908W        W58124   8.682  14.443   2.828 -0.2806  0.0959  0.0587
26909W        W58125  10.730   4.774   0.625  0.2407  0.0530  0.2801
26910W        W58126  26.779  18.577   8.396 -0.4659  0.1258  0.0793
26911W        W58127  24.974  21.313   0.050 -0.1817  0.0347 -0.2947
26912W        W58128   4.042  21.296   2.456 -0.2054  0.2755  0.1564
26913W        W58129  25.052   4.938   0.666 -0.1024 -0.2769  0.0451
26914W        W58130  15.954  10.593   0.951 -0.0353  0.1287 -0.0060
26915W        W58131  26.523  17.392   8.008 -0.1847  0.2950  0.1093
26916W        W58132  23.650  26.143   0.858 -0.1227  0.0974  0.2130
26917W        W58133  23.956   3.476   0.570 -0.1728 -0.1265 -0.0811
26918W        W58134  15.745   4.446   1.273 -0.0921 -0.1127  0.1321
26919W        W58135   6.903  21.262   3.213 -0.0081 -0.2657  0.0325
26920W        W58136  20.019   4.574   8.492  0.0622 -0.1505  0.1468
26921W        W58137   8.170  11.284   7.107 -0.2054 -0.2260 -0.1914
26922W        W58138   5.947  26.819   9.315  0.0908 -0.1097  0.2226
26923W        W58139  23.902  23.180   1.699 -0.0441 -0.0127 -0.3240
26924W        W58140  11.451   5.377   0.290 -0.0325 -0.0248  0.0303
26925W        W58141  25.332  10.553   2.374  0.2456 -0.1931 -0.1423
26926W        W58142   1.803  17.054   1.054 -0.0006  0.0824  0.2935
26927W        W58143  13.788  15.743   7.617  0.0754 -0.1017  0.0879
26928W        W58144  14.338  23.058   9.519 -0.1252  0.1228 -0.4189
26929W        W58145  14.104  25.801   9.701 -0.3013 -0.2458 -0.1502
26930W        W58146   6.726   5.896   0.721  0.4142  0.1569  0.3548
26931W        W58147   6.051  11.995   9.004 -0.0855 -0.0892  0.2497
26932W        W58148  10.633  24.794   8.767 -0.1664 -0.0974 -0.0118
26933W        W58149   0.126   6.695   2.736  0.1560 -0.2576 -0.0374
26934W        W58150   3.463  25.291   1.727 -0.0731  0.2322 -0.3131
26935W        W58151   5.900  12.355   0.916  0.0816 -0.0656 -0.0022
26936W        W58152  15.485  23.520  10.233  0.0425 -0.0727 -0.0952
26937W        W58153   0.573  10.706   0.793  0.0403 -0.1030 -0.0471
26938W        W58154   1.506  12.697   3.634  0.0021  0.2489 -0.3623
26939W        W58155  15.631   3.465   2.739 -0.0029  0.0843  0.0352
26940W        W58156  25.247  15.066   0.524  0.1691 -0.3961  0.1634
26941W        W58157  11.926  18.609   1.336  0.0095 -0.1983  0.1228
26942W        W58158  23.738  19.312   2.871 -0.2511  0.1152  0.1546
26943W        W58159   6.103  26.026   8.743  0.0617  0.3760 -0.0815
26944W        W58160  19.876  13.636   8.932 -0.4408  0.1101 -0.0473
26945W        W58161  27.154   6.871   8.702  0.1142 -0.1298 -0.0867
26946W        W58162  21.259  19.743   2.368  0.0645  0.0177  0.4967
26947W        W58163   6.612   7.635   8.800  0.0257  0.3634 -0.1308
26948W        W58164  16.180  16.308   0.367  0.1945 -0.2410 -0.1465
26949W        W58165   9.316   5.582   0.528 -0.2232 -0.1964 -0.1307
26950W        W58166  23.598  13.864   1.500 -0.0631  0.2350 -0.0781
26951W        W58167  10.783  13.202   0.973  0.0402 -0.2316 -0.0597
26952W        W58168  18.744   3.880   8.495  0.2807 -0.1658  0.1925
26953W        W58169  13.622  19.884   1.499 -0.0155 -0.2517 -0.1199
26954W        W58170   4.106  19.604   8.092 -0.3560  0.0946 -0.2991
26955W        W58171  22.719   1.879   1.324  0.3703  0.0721  0.1696
26956W        W58172  16.172  11.831   2.890 -0.1646 -0.0788  0.2240
26957W        W58173   5.362  18.337   8.743 -0.1677 -0.1301  0.3883
26958W        W58174   4.713  16.947   9.491 -0.0588  0.0569 -0.3116
26959W        W58175   9.478  24.523   9.740 -0.1055  0.0814 -0.1923
26960W        W58176  25.043  19.814   7.851  0.1115 -0.3379 -0.1900
26961W        W58177   6.248   6.663   7.442  0.0896 -0.4579 -0.2512
26962W        W58178  16.829   3.959   7.908  0.1121  0.1257 -0.4618
26963W        W58179   1.588   5.827   2.791 -0.0063  0.1238  0.3917
26964W        W58180  16.594  13.766   9.465  0.1502 -0.2946 -0.0897
26965W        W58181  24.553   1.689   9.898  0.0271  0.0127  0.0664
26966W        W58182   7.328   2.645   1.282  0.0540 -0.1798 -0.4365
26967W        W58183   5.043  26.644   0.595  0.0329  0.3620  0.1763
26968W        W58184   5.140   0.966   1.005  0.0025  0.0888 -0.2058
26969W        W58185  14.252  22.055   9.312 -0.4075  0.2926 -0.4302
26970W        W58186  16.756  21.412   9.354 -0.0765 -0.1004  0.0322
26971W        W58187  12.161  15.432   2.110  0.1327 -0.2243  0.0053
26972W        W58188   2.394   2.149   9.527 -0.0279  0.0552 -0.4367
26973W        W58189   9.839  22.013   1.597  0.3155 -0.1218  0.3048
26974W        W58190  26.282   5.114   1.242 -0.0030 -0.1779  0.0851
26975W        W58191  25.384   4.986   8.440  0.2225  0.0536 -0.0726
26976W        W58192  10.579  19.825   7.638 -0.0577  0.2193  0.2304
26977W        W58193   3.977   4.248   0.987 -0.0727 -0.2023 -0.3733
26978W        W58194  21.873  26.506   1.047  0.1903 -0.3742 -0.0537
26979W        W58195  18.565  11.090   7.713  0.1793 -0.1849 -0.2096
26980W        W58196   0.512  16.722  10.517  0.0702 -0.1499 -0.1413
26981W        W58197  14.613  20.794   1.103  0.1129 -0.5785 -0.1312
26982W        W58198  13.083  13.072   2.234  0.2139 -0.2990 -0.2063
26983W        W58199   1.661  27.597   2.838  0.2409  0.2085 -0.1527
26984W        W58200  22.303  22.985   8.597  0.2786 -0.0816  0.1475
26985W        W58201  15.411  16.869   0.032  0.0140  0.0804 -0.1761
26986W        W58202  11.250   5.946   1.765 -0.3037 -0.1676  0.1620
26987W        W58203   0.899   3.927   3.470  0.1466 -0.1515 -0.0039
26988W        W58204  25.112   1.024   9.345  0.1500 -0.0310  0.1323
26989W        W58205  10.521  24.454   3.811  0.0299 -0.0225 -0.0006
26990W        W58206   5.228  20.565   2.467  0.3063  0.2352 -0.3046
26991W        W58207   0.705   5.839   1.506  0.2829  0.0179 -0.2369
26992W        W58208  26.596  16.443   8.798 -0.0928  0.1551  0.1093
26993W        W58209  21.166  16.659   7.761 -0.0868 -0.0825 -0.4058
26994W        W58210  11.329  14.402   1.692  0.4739 -0.0359 -0.0643
26995W        W58211   4.113   1.296  10.028  0.2105  0.1312  0.1366
26996W        W58212  20.510   6.766   7.899  0.0009  0.0686 -0.0722
26997W        W58213  11.330  10.622   0.230 -0.0819 -0.0030  0.1328
26998W        W58214  17.099  16.917   1.912 -0.2670 -0.0309 -0.1072
26999W        W58215  25.197   6.147   3.361 -0.1317  0.0626 -0.1932
27000W        W58216  14.605  13.785   3.349 -0.0642  0.0773 -0.1840
27001W        W58217   8.426   0.121   2.602 -0.3804 -0.0105 -0.3459
27002W        W58218  21.461  10.908   2.148  0.2214  0.3460 -0.0733
27003W        W58219   5.029   9.856   7.558 -0.1213  0.2588 -0.1782
27004W        W58220  22.646   9.336   2.501 -0.1906  0.0688 -0.0910
27005W        W58221   7.139   5.844   7.797  0.0715 -0.1065 -0.0376
27006W        W58222  27.164  26.667   3.451 -0.0525 -0.0188  0.1529
27007W        W58223   2.830   6.373   1.229 -0.3373 -0.2734 -0.1297
27008W        W58224  25.973   7.382   9.334  0.0815 -0.2103 -0.1136
27009W        W58225   0.909  17.384   8.707 -0.0589 -0.1318 -0.0447
27010W        W58226  11.423   7.917   8.670 -0.2095 -0.0359  0.1154
27011W        W58227   7.451  11.842   1.371 -0.0922  0.2937 -0.1756
27012W        W58228  16.389   8.364   8.234  0.0666  0.0544  0.1390
27013W        W58229   5.714  18.356   8.385 -0.2649  0.0557 -0.3788
27014W        W58230  16.283  22.174   9.724  0.2449  0.0370 -0.1768
27015W        W58231  25.530   9.595   0.598  0.2311 -0.0035  0.0074
27016W        W58232  18.352   4.179   1.648  0.0715 -0.0010  0.0014
27017W        W58233   8.859  23.777   8.345  0.2857  0.3568  0.1565
27018W        W58234  24.070  12.631   1.461  0.2010 -0.2996 -0.0347
27019W        W58235  26.303   9.512   0.241  0.1654 -0.2614  0.4211
27020W        W58236  23.091  23.569   0.963 -0.0467  0.1490  0.1521
27021W        W58237   9.284   2.606   9.746 -0.0818  0.0285 -0.0316
27022W        W58238  24.054  17.699   7.338 -0.0985 -0.0298 -0.1322
27023W        W58239   4.860  18.303   8.013  0.1534 -0.1127 -0.0676
27024W        W58240  15.925   0.172   9.086  0.3479  0.3264  0.0665
27025W        W58241  27.364  18.349   3.011  0.0522  0.0146 -0.3639
27026W        W58242  14.348  18.368   8.234  0.3314  0.3481 -0.1234
27027W        W58243  25.395   0.862  10.497 -0.1721  0.2815 -0.1256
27028W        W58244   3.371  16.550   9.444 -0.3738 -0.0306 -0.1611
27029W        W58245  19.374   7.902   8.234 -0.5073  0.0420  0.0517
27030W        W58246  18.664  22.471   1.259  0.1120  0.2912  0.3447
27031W        W58247   9.561   7.901  10.217 -0.1069  0.2065 -0.1818
27032W        W58248   9.303  23.132   1.527  0.1822 -0.0113 -0.1789
27033W        W58249   3.076   5.591  10.338  0.1063 -0.3215  0.0095
27034W        W58250  16.500  13.845   0.945  0.1450  0.0487  0.0571
27035W        W58251  25.705   1.560   9.454 -0.0224  0.0875 -0.1548
27036W        W58252   4.039  14.646   9.727  0.0841  0.0774  0.1130
27037W        W58253  10.206   7.904   8.438  0.1715  0.1415 -0.1084
27038W        W58254   5.726  20.217  10.009 -0.0137 -0.1927  0.1353
27039W        W58255   5.699   5.892   2.694 -0.0745 -0.0699  0.2546
27040W        W58256   1.191   4.520  10.408 -0.0663 -0.4054  0.0352
27041W        W58257  10.538  12.786   1.931 -0.3802  0.0175 -0.2132
27042W        W58258  18.935  15.877   2.942  0.1330 -0.1513  0.3310
27043W        W58259   9.436  15.813   8.047  0.1860  0.0219  0.1115
27044W        W58260  24.739  17.542   3.438 -0.0802 -0.1849  0.1230
27045W        W58261  19.083  22.579   8.281 -0.3523 -0.2075  0.1255
27046W        W58262  21.241  26.111   1.450 -0.2505 -0.0380 -0.0801
27047W        W58263  22.370  21.330   3.020  0.1437  0.1827 -0.3670
27048W        W58264  15.899   0.752   8.696  0.0189  0.1063 -0.2577
27049W        W58265  11.142  22.508   0.502  0.1243  0.1495  0.0511
27050W        W58266   3.879  26.522   2.190  0.1803 -0.2382  0.0606
27051W        W58267  18.913   4.305   9.711  0.1491  0.0153 -0.2300
27052W        W58268  15.177  15.763   8.951 -0.2433 -0.1703 -0.1186
27053W        W58269   5.387   5.166   7.328 -0.2119 -0.1452 -0.1429
27054W        W58270  21.368  17.302  10.102 -0.0743 -0.0493  0.2366
27055W        W58271  14.759  10.007   8.797  0.1572  0.1281  0.1674
27056W        W58272   9.953  22.865   8.903 -0.0638  0.1395 -0.0815
27057W        W58273   9.187   9.816   8.765 -0.2377  0.0262  0.1868
27058W        W58274  16.962  20.247   8.872  0.1719  0.0426  0.2855
27059W        W58275   8.064   0.997   0.990  0.0398 -0.2204 -0.2559
27060W        W58276   6.785   2.379   8.898 -0.2339 -0.3216  0.3678
27061W        W58277  19.393  21.281   3.578  0.0408  0.2754 -0.1677
27062W        W58278  19.887  11.846   1.638 -0.4405 -0.2563 -0.0411
27063W        W58279   6.407  12.285   0.640  0.1033 -0.0923 -0.3601
27064W        W58280  27.017   6.356   8.820 -0.0770 -0.0900  0.0061
27065W        W58281   6.740  13.558   7.319  0.2292 -0.2533 -0.1863
27066W        W58282   1.378   6.772   8.050  0.0989 -0.0550  0.0112
27067W        W58283   0.351  18.077   8.501  0.0763  0.0985 -0.3361
27068W        W58284  11.705   4.795   0.069  0.1773 -0.1436 -0.3392
27069W        W58285   0.002  10.765   9.658 -0.1000 -0.0292  0.0446
27070W        W58286   2.425  17.360   9.489 -0.2378  0.1911 -0.0139
27071W        W58287  21.200  13.241   1.280 -0.1006  0.1347  0.3021
27072W        W58288   1.502  24.894   0.655  0.2076  0.0373 -0.1711
27073W        W58289  23.106  26.710   7.881 -0.1472  0.1712  0.2181
27074W        W58290   9.337  21.569   3.217  0.0188 -0.3634 -0.0698
27075W        W58291   1.599   4.284  10.043  0.2328 -0.4771  0.4336
27076W        W58292  18.360   5.197   8.388 -0.0997 -0.1120  0.1900
27077W        W58293  10.577  13.613  10.212 -0.0666 -0.2874  0.0328
27078W        W58294  26.636   5.667   9.777  0.0483 -0.2738 -0.3353
27079W        W58295   9.524   8.120   8.403  0.1347  0.3089 -0.1957
27080W        W58296  13.364   3.853   7.974  0.1083 -0.0029 -0.0499
27081W        W58297   2.616  20.333   2.980 -0.1681  0.0474 -0.0247
27082W        W58298  16.655  27.098   1.917  0.3306 -0.1112 -0.1251
27083W        W58299  21.135  24.235   9.422  0.0224 -0.1922  0.2382
27084W        W58300  23.617   0.977   1.875 -0.1098 -0.2379 -0.2545
27085W        W58301   7.538  26.978   0.598 -0.0747 -0.0384  0.0466
27086W        W58302  11.488  24.631   3.403  0.1091 -0.1940  0.0464
27087W        W58303  12.831   2.466   3.139  0.0559  0.2875 -0.0670
27088W        W58304   4.308  27.023   9.955 -0.0159 -0.0158  0.2729
27089W        W58305   5.186   5.937   2.612 -0.0525 -0.3557 -0.3259
27090W        W58306  14.016   6.980  10.125  0.0721  0.2112 -0.2014
27091W        W58307  13.459   1.551   9.057  0.1632 -0.2263  0.2413
27092W        W58308  16.468   4.235   8.199 -0.0121 -0.3025 -0.0873
27093W        W58309  27.542   9.808   3.009  0.0639 -0.2565 -0.0212
27094W        W58310   9.302   0.078   2.440  0.2728 -0.0227 -0.0089
27095W        W58311  22.046  27.252   2.525  0.0439 -0.0549  0.2435
27096W        W58312  14.384  20.363   6.837 -0.0759  0.1711  0.1159
27097W        W58313   1.405  27.325   3.183 -0.0973  0.3291 -0.1764
27098W        W58314   3.704  22.349   3.102  0.1385 -0.1250 -0.1056
27099W        W58315  23.982  16.036   0.304  0.1420 -0.0236  0.1260
27100W        W58316  26.885  13.485  10.486  0.0756 -0.1823 -0.1494
27101W        W58317  22.673  23.610   6.978  0.0588 -0.1724  0.2985
27102W        W58318  20.333   8.985   2.821  0.0608  0.0427 -0.0244
27103W        W58319   5.199   2.841   9.609  0.1162 -0.1111  0.3289
27104W        W58320   9.575  24.594   0.126  0.0828 -0.0136  0.1792
27105W        W58321  12.926   9.249   0.020 -0.2659 -0.1573  0.0516
27106W        W58322  13.196  24.472   0.277  0.2280 -0.3689 -0.0738
27107W        W58323  18.614   2.277   1.062 -0.1296 -0.4294  0.3544
27108W        W58324  12.646  15.361   0.702  0.0388 -0.0670  0.4173
27109W        W58325  15.044  16.813   2.629  0.1393  0.0702  0.0908
27110W        W58326  16.094  13.680   9.539 -0.1261 -0.2885 -0.3805
27111W        W58327   6.147  22.579   3.320 -0.1827  0.0304  0.0246
27112W        W58328  10.724  26.394   2.062 -0.0038 -0.0578  0.0104
27113W        W58329  13.051   1.560   3.397  0.1254 -0.0022 -0.3467
27114W        W58330  18.354  10.087   8.055 -0.2307 -0.1968 -0.1531
27115W        W58331   3.669  16.864   0.564  0.0235 -0.0512 -0.1564
27116W        W58332   6.571   2.930   1.397  0.1673  0.1008 -0.0235
27117W        W58333   6.405  22.367   0.317 -0.4009 -0.1116  0.0032
27118W        W58334   4.620  19.361   8.440 -0.3047 -0.2882  0.1062
27119W        W58335   6.248  23.367   0.363  0.2339  0.1500 -0.3327
27120W        W58336   9.122  14.321   2.611  0.1286 -0.0075 -0.0055
27121W        W58337  25.499   9.178   9.802  0.2512  0.0269 -0.1015
27122W        W58338  21.252   1.471   8.095 -0.2383  0.0808  0.0670
27123W        W58339  15.876   5.946   0.900 -0.0613  0.1530 -0.2199
27124W        W58340  19.717  12.936   9.563  0.1530  0.0992  0.1822
27125W        W58341   3.614  17.787   8.410 -0.0858  0.0193  0.2062
27126W        W58342  27.045  18.233   7.950  0.1544  0.1114  0.0674
27127W        W58343  12.342  16.295   1.630 -0.1173 -0.0335  0.2055
27128W        W58344   4.408   0.920   9.211  0.2331  0.1785  0.2026
27129W        W58345   8.184  16.925   1.608 -0.1363 -0.0797  0.1535
27130W        W58346  23.252   6.080   9.131  0.2519  0.0015 -0.3107
27131W        W58347  27.230   4.630   7.864  0.1309  0.1373 -0.0121
27132W        W58348  26.485  18.473   2.415  0.0130  0.0183  0.1519
27133W        W58349   2.686   4.368   7.581 -0.0099 -0.1275  0.1089
27134W        W58350  12.159   9.589   8.064  0.1358  0.1936  0.1465
27135W        W58351  19.816  10.018   7.601  0.1037 -0.0976  0.1674
27136W        W58352  20.625  10.393   7.053 -0.0788  0.2039 -0.2775
27137W        W58353   5.425   7.174   0.976 -0.2366  0.0696 -0.2911
27138W        W58354  26.808  20.751   3.054 -0.6776 -0.0974  0.0743
27139W        W58355  14.549  12.924   1.101  0.1046  0.0700 -0.0966
27140W        W58356  13.824   2.001   9.841 -0.0937  0.1734 -0.0295
27141W        W58357  17.542  22.085   0.119 -0.0054  0.2008 -0.0746
27142W        W58358   9.432   2.423   0.372 -0.1177  0.1025 -0.1288
27143W        W58359  17.893  14.745   2.747  0.2662 -0.1717  0.0025
27144W        W58360  22.424  13.222   3.561  0.0546  0.2698  0.0091
27145W        W58361   2.864   4.202  10.308  0.4209  0.1117 -0.3020
27146W        W58362  14.964   1.751   2.670  0.1674  0.0089  0.0948
27147W        W58363  12.365  26.590   9.192  0.2006 -0.1090 -0.1961
27148W        W58364  26.519  22.081   9.046  0.0547 -0.1359  0.0039
27149W        W58365   8.894  18.930   2.206  0.0133 -0.1154 -0.1981
27150W        W58366  22.034  18.612   8.405 -0.3950 -0.1796 -0.1088
27151W        W58367  23.655  23.954   0.233  0.1780 -0.1328 -0.2177
27152W        W58368  19.340   0.953   2.143 -0.1955  0.1091 -0.0778
27153W        W58369  24.069  27.076   1.408  0.0374 -0.0056  0.1660
27154W        W58370   0.931  12.359   9.306 -0.0322  0.0292 -0.0142
27155W        W58371  19.618   4.420   8.189  0.3396  0.5501 -0.0543
27156W        W58372   0.354  19.311  10.125  0.1084 -0.1943 -0.2208
27157W        W58373  20.604  26.142   9.832  0.1033  0.1929  0.2019
27158W        W58374  17.931  12.060   8.427  0.1513 -0.0461 -0.2489
27159W        W58375  25.605  18.758   7.285  0.2819  0.1724 -0.1043
27160W        W58376   7.353  19.825   2.105  0.0808  0.2089  0.1254
27161W        W58377  12.423  19.087   2.264  0.0565  0.2781 -0.3972
27162W        W58378  16.767  20.897   3.099 -0.0715  0.0510 -0.2035
27163W        W58379   9.869  25.764  10.255 -0.2670 -0.0235  0.2175
27164W        W58380  17.857   0.239   2.289 -0.2571 -0.1799 -0.1186
27165W        W58381   3.197  16.424   0.034 -0.0720  0.1025  0.0974
27166W        W58382  13.961  11.375   3.540 -0.1428  0.1824 -0.4352
27167W        W58383  26.212   8.549   1.377  0.0602 -0.2107  0.0183
27168W        W58384  27.027  22.843   1.584  0.1187  0.0756 -0.1586
27169W        W58385  11.906  27.074   2.732  0.1188  0.1505  0.1450
27170W        W58386   3.616   1.018   8.130 -0.1216  0.1637 -0.0571
27171W        W58387  26.568  15.359   3.009  0.0868 -0.1460 -0.1399
27172W        W58388   5.680   4.575   8.897  0.1638  0.0952  0.0194
27173W        W58389  19.640  19.967   3.177 -0.1144 -0.3601  0.2112
27174W        W58390   1.336  14.047   9.227 -0.2738 -0.0588 -0.1028
27175W        W58391  10.074  21.239   9.063  0.2925 -0.1040 -0.0633
27176W        W58392   5.895  16.093   8.943  0.1322  0.1372 -0.2178
27177W        W58393   8.024  10.442   1.347  0.2896 -0.0232  0.1442
27178W        W58394   1.807  13.077   9.368 -0.0299  0.1394  0.0482
27179W        W58395   7.631  13.428   8.731  0.0802 -0.4235 -0.1757
27180W        W58396   7.198  20.607   3.466 -0.0796 -0.0858  0.1020
27181W        W58397   3.156   6.189   0.790 -0.2828 -0.2048  0.3370
27182W        W58398  12.188  25.623   8.513 -0.4833 -0.1494  0.0298
27183W        W58399   4.098  17.205   0.539  0.2422  0.0050  0.1508
27184W        W58400  24.279  25.617   2.339 -0.0169 -0.0695  0.0134
27185W        W58401   4.332   1.106   2.613  0.0443  0.1840  0.0355
27186W        W58402  24.353  11.663   0.462  0.0089  0.2972 -0.2301
27187W        W58403  17.662  19.506   3.963 -0.2462 -0.5702  0.0230
27188W        W58404   0.542  17.040   8.868  0.0684 -0.0020 -0.1268
27189W        W58405  26.666  19.675   7.867  0.0029 -0.3301 -0.0156
27190W        W58406   0.068   8.193   0.591  0.0890  0.2363 -0.0416
27191W        W58407   3.963  22.174   8.229  0.1367  0.0514 -0.3080
27192W        W58408   2.930  19.638   9.724 -0.1793 -0.3120  0.0940
27193W        W58409  14.883  26.013   9.900  0.3097 -0.0231  0.0049
27194W        W58410  15.216  19.656  10.426  0.0994  0.0338  0.1676
27195W        W58411  19.684  11.427   7.099 -0.2951  0.0429 -0.1726
27196W        W58412  15.783  12.665   9.866 -0.0595  0.1820  0.1173
27197W        W58413  11.539  18.635  10.419 -0.2628  0.0315  0.2071
27198W        W58414   8.404  10.435   0.383  0.0217 -0.1395  0.3378
27199W        W58415   1.056  25.375   8.196  0.0339  0.2503  0.3014
27200W        W58416  17.797  23.720   2.124 -0.2587  0.0687 -0.1287
27201W        W58417  26.089   2.834   8.966  0.1337  0.1651 -0.0432
27202W        W58418  24.747  27.297   8.506 -0.1266 -0.2993  0.2964
27203W        W58419   8.973  14.951   9.701  0.2113 -0.0110  0.3275
27204W        W58420  23.942   6.371   2.844  0.0899 -0.1099  0.0181
27205W        W58421   5.019  25.348   0.680  0.0139  0.1531 -0.2538
27206W        W58422   3.154   5.217   8.105  0.3906 -0.0108 -0.0179
27207W        W58423  17.597   2.647  10.052  0.0328 -0.0530  0.3773
27208W        W58424  15.413   7.443   8.735  0.2466 -0.0748  0.1797
27209W        W58425  26.442   0.752   8.312 -0.1640 -0.3241 -0.0214
27210W        W58426  25.888  18.973   2.504 -0.0738  0.1203  0.1836
27211W        W58427   9.405  14.888  10.463 -0.0126 -0.2506 -0.0416
27212W        W58428  14.222   8.322   2.345 -0.0569 -0.0789 -0.0382
27213W        W58429   0.725   9.970   0.299  0.1026  0.1285 -0.0038
27214W        W58430  18.031  12.281   9.381  0.1402 -0.0570 -0.0295
27215W        W58431   3.471   2.922   2.509  0.0154  0.2988 -0.1148
27216W        W58432  20.609  11.730   9.371  0.0588 -0.0410  0.0893
27217W        W58433  11.248  25.548   0.955 -0.1477 -0.1170 -0.3751
27218W        W58434   4.965   2.606   0.743 -0.0929  0.2612 -0.2255
27219W        W58435   9.645  12.700   2.569 -0.1407  0.0944 -0.0413
27220W        W58436  18.808  19.319   8.929 -0.0677  0.0409  0.1295
27221W        W58437  27.267  13.823   2.670 -0.2115  0.2514 -0.2203
27222W        W58438  18.545  24.296   2.757 -0.3025 -0.2015  0.0555
27223W        W58439  16.825  19.154   1.442 -0.1531  0.2854 -0.0163
27224W        W58440  23.745  20.285   0.322  0.1302  0.0216 -0.1335
27225W        W58441  23.571  19.514   8.721 -0.2024  0.1453  0.0997
27226W        W58442  26.420  17.455   9.017 -0.1067 -0.2202  0.1102
27227W        W58443  17.494  17.525   9.838 -0.0188  0.1459 -0.1779
27228W        W58444  17.726  12.983   1.259  0.0769 -0.0237  0.0942
27229W        W58445  21.662  22.525   0.602  0.1034  0.3524 -0.1006
27230W        W58446  26.186  21.181   0.804  0.2433 -0.0469  0.0220
27231W        W58447   0.837  10.798   3.912 -0.0016  0.2428  0.0580
27232W        W58448   3.157  24.889   9.711  0.0773 -0.0167 -0.1443
27233W        W58449   7.852  26.157   0.140  0.0580  0.1003 -0.1756
27234W        W58450  12.855  18.734   2.436 -0.0307 -0.0893 -0.0726
27235W        W58451  21.811  20.143   7.273 -0.0452 -0.2881  0.2779
27236W        W58452  17.507  13.148   8.254 -0.0938  0.1832 -0.1084
27237W        W58453   2.287  22.154   2.313 -0.1396 -0.1585  0.0201
27238W        W58454  21.258  16.257   0.558 -0.0356  0.0246 -0.0213
27239W        W58455  12.717  20.102   9.684  0.2253 -0.1971 -0.0029
27240W        W58456   3.606   1.089  10.087  0.0326  0.0453 -0.4972
27241W        W58457   0.424  24.471   8.246  0.2300  0.0867 -0.2025
27242W        W58458   4.772  22.219  10.285  0.0353 -0.0081 -0.1297
27243W        W58459  25.369  11.690   3.515  0.1317  0.1479  0.2178
27244W        W58460  11.705  24.406   1.038  0.1681 -0.4207  0.0180
27245W        W58461   4.014  24.390   2.155 -0.0922  0.1973  0.3452
27246W        W58462  25.987   7.799   0.723 -0.1286  0.0768 -0.0283
27247W        W58463  27.415  18.344   0.016  0.1492  0.2021  0.0197
27248W        W58464   8.416  14.089   1.911 -0.1680  0.0787  0.0434
27249W        W58465  11.266  14.242   7.924  0.0129  0.0926 -0.3194
27250W        W58466   4.847  11.798   9.448 -0.1674  0.0004 -0.2627
27251W        W58467  25.132   8.316   0.569  0.0638  0.0454  0.2366
27252W        W58468  24.101  24.051   8.838  0.2127 -0.3043 -0.4848
27253W        W58469  26.085   4.732   2.564 -0.1671  0.1435 -0.0059
27254W        W58470  21.880  20.281   8.870 -0.0949  0.1565  0.0657
27255W        W58471   5.070   3.842  10.367 -0.0114 -0.1095  0.1722
27256W        W58472   0.006  14.864   0.138 -0.0157  0.2062  0.2304
27257W        W58473  10.084  15.122   1.579 -0.3143  0.0264 -0.2210
27258W        W58474   6.404  18.515   7.333 -0.3326  0.2025 -0.1362
27259W        W58475  14.534  17.858   7.934  0.0867  0.2689 -0.3826
27260W        W58476  10.049  16.773   3.569  0.1368 -0.0179 -0.0699
27261W        W58477  12.672  13.995   9.184 -0.0203  0.0042  0.0167
27262W        W58478  21.645  22.555  10.282  0.2705 -0.1019 -0.2531
27263W        W58479  16.668  10.335   2.422 -0.0780  0.1061 -0.1020
27264W        W58480  18.038  18.158   8.215  0.1991 -0.1137  0.2052
27265W        W58481  12.555  13.831   1.729 -0.0851 -0.2526  0.1267
27266W        W58482  19.487  23.285   9.168  0.0665 -0.2712  0.0167
27267W        W58483  26.934   4.850   2.055 -0.0525 -0.2001  0.2053
27268W        W58484  12.816  16.728   2.228  0.2279 -0.2966 -0.0049
27269W        W58485   7.850  21.612   9.649  0.0886  0.2766  0.1094
27270W        W58486   6.262  15.669   0.443  0.1672  0.2894  0.1012
27271W        W58487   3.057  17.043   2.972 -0.0657 -0.0247  0.0051
27272W        W58488   6.593  21.955  10.488  0.0568  0.1310 -0.1621
27273W        W58489  25.031  19.424   3.486  0.4313  0.1935  0.3588
27274W        W58490  23.340  14.826   0.539  0.2300 -0.0903 -0.2704
27275W        W58491   9.219   9.380   2.542  0.1209  0.0237 -0.0350
27276W        W58492  12.869  15.452  10.341 -0.0148 -0.0308 -0.2080
27277W        W58493   7.278  12.173   7.439  0.2858  0.3102 -0.0036
27278W        W58494  13.831  14.446   3.768  0.0434  0.1079  0.2981
27279W        W58495  21.726   3.511   9.577 -0.2461  0.1402 -0.1767
27280W        W58496   9.196  14.309  10.431  0.4560 -0.1532 -0.3221
27281W        W58497  18.106   3.318   0.101  0.2022  0.0997 -0.0926
27282W        W58498  11.693  14.849   9.987 -0.1621  0.0443  0.0611
27283W        W58499  22.146   7.483   9.967  0.0725  0.2088 -0.0093
27284W        W58500  26.830  16.277   2.868  0.0606  0.1876 -0.2409
27285W        W58501  21.244   5.378   9.849 -0.1555 -0.2287 -0.1447
27286W        W58502  17.008  11.710   2.284  0.0028 -0.1721  0.0050
27287W        W58503  14.363   2.170   9.857 -0.1990  0.0309 -0.3749
27288W        W58504   5.944  20.761   3.019 -0.1117 -0.2324 -0.2090
27289W        W58505  22.773  17.721   3.230  0.0946 -0.4374  0.1987
27290W        W58506   6.574  16.177   2.623  0.0516 -0.0714  0.2245
27291W        W58507  24.298  10.270   7.295 -0.0179  0.1632 -0.1334
27292W        W58508   1.875  14.523   9.715  0.1114  0.2223  0.2508
27293W        W58509  11.374  14.008  10.445 -0.1916 -0.2431  0.1311
27294W        W58510   7.077  10.075   8.471  0.0483  0.0486  0.2434
27295W        W58511  21.516  23.380   9.000  0.0222  0.0824 -0.1072
27296W        W58512  18.081  10.791   1.655 -0.2886 -0.1843  0.6215
27297W        W58513  10.426  14.431   3.413 -0.1327 -0.0242 -0.0366
27298W        W58514  15.304   5.089   2.129 -0.0386  0.0519  0.0055
27299W        W58515  10.522  22.285   7.542 -0.3630 -0.0562  0.2219
27300W        W58516   7.858  18.591   9.976  0.0774  0.1800 -0.0795
27301W        W58517  26.468   6.322   1.819  0.1054  0.0605  0.0337
27302W        W58518   9.020   9.865   0.196  0.1065  0.0612 -0.0265
27303W        W58519  17.836  18.930   9.632 -0.3061 -0.2829 -0.3937
27304W        W58520  26.859  20.270   0.396 -0.1540  0.1981  0.0831
27305W        W58521  22.339  22.433   1.986 -0.0765  0.0155 -0.0085
27306W        W58522  13.032  24.003   8.433  0.0260  0.0039  0.2542
27307W        W58523   4.705  11.055   7.791 -0.0943  0.0216 -0.2059
27308W        W58524  10.021  27.335   3.795 -0.0682 -0.0487  0.1440
27309W        W58525  22.800  11.599   8.315  0.1374 -0.0105  0.1609
27310W        W58526   3.365   0.381   9.449  0.0867  0.0207  0.4197
27311W        W58527  18.455  12.258   7.878 -0.1599  0.0574 -0.3020
27312W        W58528   3.264   3.808   2.205  0.0347 -0.0258  0.1708
27313W        W58529  18.859  23.631   8.396 -0.1283 -0.1298  0.1228
27314W        W58530   5.833  15.252   8.665  0.1837  0.0977  0.0635
27315W        W58531  16.669   7.397   0.992 -0.0506 -0.1096 -0.0035
27316W        W58532  23.931   4.712   2.344  0.1397 -0.1967  0.1092
27317W        W58533  17.361   0.750   8.313  0.0017  0.4692 -0.2036
27318W        W58534  12.599  23.877   8.132 -0.2789  0.2248  0.3120
27319W        W58535   8.075   1.541   0.932 -0.0697  0.1892  0.3479
27320W        W58536  19.416  18.601   2.123  0.1386  0.0714 -0.1728
27321W        W58537   9.406  17.492   9.939 -0.1122  0.2259  0.1023
27322W        W58538  27.070  17.266   9.751  0.0997 -0.0565 -0.3263
27323W        W58539  20.416  24.998  10.506 -0.0279 -0.1143  0.3440
27324W        W58540  25.383   7.161   0.163 -0.1845 -0.3583 -0.1130
27325W        W58541   7.617  13.406   7.347  0.0209 -0.1158  0.2563
27326W        W58542  12.023   0.819   1.170 -0.1852  0.0242  0.0347
27327W        W58543  12.243   6.927   1.719 -0.0576  0.1199 -0.2810
27328W        W58544  12.570  15.575   9.922  0.6627 -0.0842  0.4927
27329W        W58545   2.648   0.790   9.135 -0.2487  0.0232  0.2841
27330W        W58546  12.563  24.712  10.296 -0.1339  0.3631 -0.1201
27331W        W58547   5.685  21.077   7.980 -0.2062 -0.0334  0.2325
27332W        W58548   2.736  23.491   4.195 -0.2341  0.2899  0.1402
27333W        W58549  26.278  17.875   3.451  0.3539  0.1753  0.1374
27334W        W58550   9.154  26.238   2.219 -0.3534  0.1277 -0.1566
27335W        W58551  18.079  24.319   0.855  0.1866 -0.0037 -0.0231
27336W        W58552  19.399   5.875   6.823  0.0150 -0.1379 -0.0286
27337W        W58553  23.691   9.916   0.098  0.3705  0.1719 -0.0413
27338W        W58554   2.752   3.051   8.338  0.2245  0.2235  0.1324
27339W        W58555  27.061  25.555   0.264 -0.0932  0.2181 -0.0901
27340W        W58556  14.597  27.587  10.172  0.4775  0.2047 -0.0745
27341W        W58557   0.266  10.291   3.115  0.0779  0.1475 -0.0425
27342W        W58558  22.492   2.691   0.716 -0.0449  0.0283  0.1525
27343W        W58559   6.609  16.058   1.604  0.0354 -0.0266 -0.0242
27344W        W58560   6.087  27.570   1.177  0.0298  0.1533  0.1242
27345W        W58561  24.630   3.646   7.804  0.2057  0.0271 -0.0053
27346W        W58562   8.212  24.003   1.697 -0.1336 -0.2783 -0.1742
27347W        W58563  15.614   7.564   1.023  0.0189  0.1694 -0.1380
27348W        W58564   1.518  16.149   4.351 -0.0304  0.1244  0.1336
27349W        W58565  22.543  25.190   0.034 -0.1114 -0.2336 -0.1919
27350W        W58566   1.362  24.389   0.009  0.3801  0.2179 -0.0912
27351W        W58567  15.017   4.161   8.086  0.4256  0.0656  0.3782
27352W        W58568  17.348  19.667   2.240 -0.2580  0.2289 -0.2030
27353W        W58569  21.109  12.264   2.607  0.1385  0.3459 -0.0731
27354W        W58570  17.639  20.949   9.269  0.0870  0.2086  0.1073
27355W        W58571  12.486   6.864   8.292 -0.0661  0.1135 -0.1533
27356W        W58572   4.460  22.153   8.167  0.0289 -0.1484  0.1727
27357W        W58573   8.448   5.085   9.974  0.3384 -0.0898  0.0876
27358W        W58574   7.840  10.286   9.578 -0.2595 -0.2352  0.0911
27359W        W58575   6.190   1.897   8.251 -0.2417 -0.0985  0.0603
27360W        W58576  12.865  27.614   0.171 -0.0689 -0.0966 -0.2595
27361W        W58577  13.416   4.966   9.026  0.0799  0.3130  0.4285
27362W        W58578  26.444   5.133   0.298  0.1210  0.4294 -0.0138
27363W        W58579   6.708   4.476   8.937  0.2068 -0.3912  0.0295
27364W        W58580  19.049  22.052   9.593  0.0948 -0.0688 -0.0612
27365W        W58581   5.343  20.531   9.738 -0.0963 -0.1272 -0.0261
27366W        W58582   3.894  10.421   8.646 -0.0873  0.4747  0.2036
27367W        W58583  18.738   7.784   1.363 -0.0169 -0.0346  0.0205
27368W        W58584  21.789  17.587   1.942 -0.4109 -0.1380 -0.1508
27369W        W58585   2.831  23.016   0.937  0.0475 -0.0748 -0.0232
27370W        W58586  20.823   5.470   9.521  0.0101  0.0555  0.3966
27371W        W58587  18.309   6.516   2.873  0.2586  0.1169 -0.1390
27372W        W58588  12.707  20.160   2.200 -0.1182 -0.0541 -0.0758
27373W        W58589  18.678   7.312   8.848 -0.1754 -0.4569 -0.3176
27374W        W58590  16.030   7.044   6.985  0.0192  0.1096  0.0266
27375W        W58591   2.874   8.639   0.305  0.3772  0.2050 -0.1341
27376W        W58592   9.699  21.598   2.824 -0.4292  0.2338 -0.0649
27377W        W58593   1.871   2.717   1.177  0.1906 -0.2450 -0.0308
27378W        W58594  25.635  16.875   7.867 -0.0108 -0.0235  0.2845
27379W        W58595  25.767  12.411   8.543  0.4286 -0.0057 -0.2841
27380W        W58596  15.332  23.187   0.478  0.0182 -0.3602  0.0468
27381W        W58597   0.382  22.682   1.468  0.3380  0.1326 -0.0805
27382W        W58598  21.569  16.611   9.261 -0.3034 -0.2943 -0.2053
27383W        W58599  22.765  25.103   1.049  0.2457 -0.3438  0.5493
27384W        W58600  26.647   5.637   8.780  0.0060  0.2031  0.1557
27385W        W58601  21.243   0.608   0.117  0.1972  0.1322 -0.0732
27386W        W58602  18.865   0.960   1.505 -0.0871 -0.2995  0.1677
27387W        W58603   6.121  20.914   0.066 -0.1979  0.1063 -0.0142
27388W        W58604  10.703  10.683   1.960 -0.0493 -0.1957 -0.0339
27389W        W58605  10.292  17.610   8.604  0.0029 -0.4573 -0.3531
27390W        W58606  17.468  12.197   3.103 -0.0267  0.0867 -0.0966
27391W        W58607  15.586   3.000   2.443  0.2438  0.2356  0.0137
27392W        W58608  19.580  26.175   1.077  0.0107  0.2985 -0.2225
27393W        W58609  12.718  25.909   9.711 -0.1142 -0.2528  0.2122
27394W        W58610  15.986   6.017   8.061  0.1343  0.2428 -0.0933
27395W        W58611  22.891   6.579   2.014  0.2190  0.1128 -0.0299
27396W        W58612  15.169  18.481   9.935 -0.2149 -0.1696  0.3206
27397W        W58613  25.385  15.063   7.423 -0.0675 -0.0812  0.0025
27398W        W58614  14.375  15.133   3.116  0.5254 -0.0268  0.0319
27399W        W58615  19.529   5.542   8.982  0.2532 -0.0967  0.2247
27400W        W58616   0.663  12.932   2.877  0.1576  0.0387 -0.1851
27401W        W58617   3.087  17.595   0.264 -0.0442 -0.0926  0.1363
27402W        W58618  16.935  19.357  10.493 -0.1186  0.1274 -0.1606
27403W        W58619   2.497  27.022   2.940  0.1859  0.1167  0.2197
27404W        W58620  21.186  22.557  10.031  0.3169 -0.1508 -0.0618
27405W        W58621   9.193   2.699   2.931  0.0788 -0.0759 -0.2359
27406W        W58622  25.800   3.407   3.160  0.0599  0.1591  0.0788
27407W        W58623  18.244  17.723   4.026  0.3902 -0.2901 -0.1248
27408W        W58624  20.958   7.799   0.876  0.0494 -0.2125 -0.2434
27409W        W58625  15.130  16.952   1.280 -0.0347  0.0652 -0.1353
27410W        W58626  14.724   2.271   1.908  0.2636  0.1720 -0.0874
27411W        W58627  20.528  24.884   9.939  0.1696 -0.1287  0.0227
27412W        W58628  15.664  13.797   0.251  0.3140  0.1644  0.0016
27413W        W58629   5.033  22.690   2.728  0.0378 -0.1471 -0.0748
27414W        W58630  26.878   9.269   3.401  0.3006  0.0188 -0.0088
27415W        W58631  17.278  17.970   9.527  0.2018  0.2329  0.2226
27416W        W58632  26.613   6.736   7.971 -0.0673 -0.0135 -0.0680
27417W        W58633   0.618   8.389   1.978 -0.1437 -0.0277 -0.3453
27418W        W58634   8.343  18.396   1.100 -0.3427  0.0790  0.2191
27419W        W58635   6.504  20.628   1.098  0.0578 -0.1601  0.1420
27420W        W58636  14.486  27.439   1.032  0.3024  0.2354  0.0518
27421W        W58637  18.615   6.547   1.133  0.0669  0.1315 -0.3924
27422W        W58638  24.032   2.362   2.855 -0.0344  0.0153  0.0114
27423W        W58639   5.123  16.296   2.109 -0.1799  0.4070 -0.0597
27424W        W58640  22.777  22.933   8.489  0.1689  0.1928 -0.2173
27425W        W58641  27.420  19.427  10.354 -0.2458 -0.0742 -0.1039
27426W        W58642  26.110  21.179   9.726  0.2008 -0.2435 -0.1946
27427W        W58643   1.269  11.385   3.095  0.0649 -0.2032  0.0371
27428W        W58644   0.245  12.321   0.228 -0.0578 -0.2192  0.1663
27429W        W58645  17.631  20.937   1.201 -0.1088  0.1634 -0.1301
27430W        W58646  23.524   5.899   2.530  0.0163 -0.0160  0.1154
27431W        W58647   7.207  22.388   1.826  0.1002  0.0719  0.0295
27432W        W58648  22.857   7.394   1.319 -0.0066  0.0372  0.0514
27433W        W58649  21.742   7.420   0.485 -0.1404 -0.0024  0.0395
27434W        W58650  19.332  14.060   9.716 -0.1258 -0.1438  0.4507
27435W        W58651  25.575  26.171   9.559  0.1911 -0.0287  0.1733
27436W        W58652  21.648   5.178  10.151 -0.0668  0.1437  0.1345
27437W        W58653  15.406  10.007   2.835  0.2761 -0.0805  0.1283
27438W        W58654  25.603  11.812  10.375 -0.2363  0.2995  0.1334
27439W        W58655  21.745  23.318   0.071  0.3813  0.0393  0.5024
27440W        W58656  15.322  23.602   2.314  0.0953  0.3584 -0.1029
27441W        W58657  26.005  11.763   2.885 -0.1261  0.0847 -0.1837
27442W        W58658  18.270   4.256   9.436  0.5310 -0.0399 -0.3817
27443W        W58659  23.631   0.036   1.936  0.2001 -0.1128 -0.1949
27444W        W58660   0.314   2.734   2.233  0.1208 -0.1992 -0.1640
27445W        W58661  22.651  27.249  10.049  0.0026  0.2316 -0.1286
27446W        W58662  18.908   1.056   1.986  0.0762  0.0335 -0.3856
27447W        W58663  15.923  20.485   8.792 -0.0016  0.0981 -0.3414
27448W        W58664  16.313  18.893   3.756 -0.0899 -0.1240  0.0483
27449W        W58665   8.771  11.357   0.413 -0.0547 -0.4193  0.0662
27450W        W58666  21.021   7.222   1.813  0.0643  0.1243 -0.0030
27451W        W58667  26.993  15.489   3.398 -0.3245 -0.0808 -0.2410
27452W        W58668   8.131  16.529   9.713 -0.1236 -0.1500  0.3434
27453W        W58669  20.884   7.994   8.078  0.0569 -0.0262  0.0206
27454W        W58670  21.741  20.101   2.213  0.0355  0.1952 -0.0123
27455W        W58671   3.886   6.773   8.475 -0.1662 -0.1867 -0.1947
27456W        W58672  26.441  16.329   1.667 -0.3495  0.1322  0.0253
27457W        W58673  23.484   2.876   2.573 -0.3147 -0.2660 -0.0476
27458W        W58674   5.308  10.077   1.895 -0.0728  0.1135 -0.0783
27459W        W58675  21.864   9.696   0.811 -0.0973  0.0272 -0.0571
27460W        W58676  27.270  16.336   0.001  0.0622  0.4084  0.1164
27461W        W58677  12.254   4.670   8.327  0.1020  0.1285  0.0140
27462W        W58678   1.565  10.990   2.617  0.2050  0.2243  0.0537
27463W        W58679   6.488  20.430   2.286  0.0381  0.0918  0.0489
27464W        W58680  24.383   6.861   8.803  0.2800 -0.0853  0.1067
27465W        W58681  11.132  27.236   9.744 -0.3419  0.0812 -0.0586
27466W        W58682  10.254   2.098   0.844 -0.2090 -0.4008  0.1311
27467W        W58683   6.111   9.062   1.635 -0.2400  0.1242 -0.0257
27468W        W58684  14.954  22.068   0.681 -0.1721 -0.0665 -0.2946
27469W        W58685  16.153  11.304   2.646 -0.0743  0.0646  0.1274
27470W        W58686  19.019  13.407   2.342  0.3702  0.1520 -0.3454
27471W        W58687   2.580  11.394   0.727 -0.0833 -0.0557  0.0926
27472W        W58688  19.437  15.875   9.553 -0.2341  0.2201  0.2169
27473W        W58689  24.067  23.666   0.202 -0.1689  0.0207  0.1686
27474W        W58690  21.882  12.913   7.255 -0.0957  0.2306  0.0839
27475W        W58691  21.513   2.404   2.767  0.0283  0.1685 -0.1115
27476W        W58692  16.154  23.170   0.368 -0.1573  0.5048  0.1773
27477W        W58693   8.562   8.123   9.613  0.3098 -0.0826 -0.1768
27478W        W58694  23.396   1.218   1.145 -0.0956 -0.1676 -0.0421
27479W        W58695  15.576  10.164   7.240  0.1835 -0.0809  0.1584
27480W        W58696   3.911   8.118   7.746 -0.0239 -0.2879 -0.2476
27481W        W58697   1.024  15.080   9.868  0.1210 -0.0135  0.0739
27482W        W58698   9.968   5.241   0.858  0.1540  0.3286  0.0181
27483W        W58699  21.713  23.411   0.792  0.4412 -0.0560 -0.0783
27484W        W58700  15.092  23.732   8.636 -0.0110 -0.0085 -0.1101
27485W        W58701  22.575  18.697   7.552  0.1412  0.0175 -0.1242
27486W        W58702  11.303   8.950   0.314 -0.0116 -0.3308 -0.1566
27487W        W58703  21.304  20.763   0.019 -0.1067  0.1615  0.0708
27488W        W58704  18.305   6.493   0.566 -0.2566 -0.0190 -0.3350
27489W        W58705  11.526  14.941   9.289  0.0869  0.0732  0.0674
27490W        W58706   9.346  12.933   3.561 -0.3525 -0.0199  0.2984
27491W        W58707   2.895   8.990   8.341 -0.3708  0.0698  0.1054
27492W        W58708  22.099  12.133   2.239  0.2313  0.0996  0.0657
27493W        W58709  24.937  11.737   8.369  0.2980 -0.0360 -0.1866
27494W        W58710  23.163   7.816   2.648 -0.2836  0.2335 -0.0314
27495W        W58711  11.177  21.441   2.962 -0.0054  0.2633 -0.0527
27496W        W58712   3.053  22.599   2.744 -0.2715 -0.2238 -0.1338
27497W        W58713   0.360  13.834   7.472 -0.2295 -0.0021  0.0900
27498W        W58714  11.175   2.492   0.807 -0.0432 -0.0907 -0.1886
27499W        W58715  19.788  10.044   1.033 -0.0967 -0.0308 -0.2582
27500W        W58716   1.878  16.082   9.397  0.4949 -0.2572  0.2492
27501W        W58717  12.303  11.347   2.933  0.2458  0.0342  0.1971
27502W        W58718  23.889  10.608   8.012 -0.2161 -0.0622 -0.0706
27503W        W58719   5.937  26.023   3.861 -0.0620 -0.1509  0.1862
27504W        W58720  26.412  27.291   8.232 -0.3940  0.0850 -0.1872
27505W        W58721  12.245  20.458   2.111  0.2818 -0.0401 -0.1480
27506W        W58722   2.005  12.992   8.931 -0.2019  0.1126  0.2721
27507W        W58723   3.693   3.358   8.765  0.2976 -0.0568 -0.3721
27508W        W58724  10.928  21.075   9.281 -0.4057 -0.0539  0.0997
27509W        W58725  26.119  27.595   9.780 -0.0282  0.0423  0.1628
27510W        W58726  22.066  16.646   6.712 -0.1088 -0.0410  0.2916
27511W        W58727  22.165   6.312   2.637  0.1491  0.5376 -0.2796
27512W        W58728   0.667   1.577   8.279 -0.1426 -0.0002  0.1967
27513W        W58729  23.938  26.563   1.685 -0.0191  0.0036 -0.0940
27514W        W58730  13.690  11.366   2.407 -0.0122  0.1421  0.0480
27515W        W58731   8.172  24.935   7.817 -0.0109  0.0390  0.2413
27516W        W58732  17.915   1.049   3.415 -0.0799  0.0879  0.5445
27517W        W58733   0.095   7.698   0.766 -0.0438 -0.0266  0.3972
27518W        W58734   3.241  18.720   1.698  0.0984  0.2315  0.3030
27519W        W58735   8.583   2.710   2.966 -0.1795 -0.2964  0.1810
27520W        W58736  17.900   6.996   2.800 -0.1638 -0.1799  0.0743
27521W        W58737   7.599   6.050   9.256  0.1046  0.0748  0.0524
27522W        W58738  22.567  13.474   9.474  0.1306 -0.3594 -0.3894
27523W        W58739   4.260   9.027   0.407  0.0850  0.0559 -0.0115
27524W        W58740  21.024  14.113   9.678 -0.0108 -0.1633  0.1721
27525W        W58741  20.435   7.013   8.754  0.2130  0.1498  0.4098
27526W        W58742   1.781   0.252   9.266  0.2104 -0.2513 -0.2840
27527W        W58743  17.599  17.526   8.428 -0.3778  0.0103  0.3306
27528W        W58744   3.368  11.046   1.891  0.2999 -0.2414  0.0789
27529W        W58745  13.937  12.305   7.746 -0.1991 -0.1582 -0.0508
27530W        W58746  19.354  23.192   1.490 -0.0837 -0.0424 -0.0286
27531W        W58747   7.975  16.164   7.225 -0.1100  0.1903  0.0104
27532W        W58748  13.984  15.073  10.039 -0.0447  0.2228 -0.0303
27533W        W58749  18.682  20.365   2.371  0.0329 -0.1417  0.0845
27534W        W58750   2.162  21.499   1.422 -0.1811  0.2108  0.0946
27535W        W58751   8.200  22.429   1.236  0.1857  0.1164 -0.3536
27536W        W58752  27.280  26.829   0.292 -0.3159  0.0252 -0.0611
27537W        W58753  24.406  23.338   2.313  0.0700 -0.0640 -0.1911
27538W        W58754   4.050  18.778   0.681  0.0656 -0.0056 -0.1949
27539W        W58755  20.708   1.221   8.250 -0.2811 -0.1088  0.0254
27540W        W58756   1.807   4.385   1.255  0.0051 -0.0902 -0.1796
27541W        W58757  21.900  23.739   2.154  0.0565  0.2182  0.0255
27542W        W58758   1.913   8.215   8.180  0.3113  0.2186  0.0247
27543W        W58759  22.882   6.948   7.718  0.0316 -0.0666 -0.1710
27544W        W58760   7.429  20.789  10.259 -0.0706  0.0754 -0.2239
27545W        W58761  23.520  18.106   8.270 -0.1599 -0.1607 -0.1855
27546W        W58762  19.437   4.047   8.491 -0.0538 -0.0333 -0.1723
27547W        W58763  11.347  12.506   3.685  0.2586 -0.1631  0.2654
27548W        W58764   7.610  13.360   9.242  0.2253  0.1680  0.1410
27549W        W58765  14.023  13.097   2.268  0.0462 -0.2421  0.3624
27550W        W58766  24.866   1.590   0.808 -0.1771  0.1258  0.0778
27551W        W58767  22.545  11.717   2.305 -0.0678 -0.2806 -0.1871
27552W        W58768   3.478  27.131   2.480 -0.0373 -0.1130 -0.1598
27553W        W58769  26.867  11.332   3.052 -0.0683 -0.1768 -0.0540
27554W        W58770  11.540   5.674   2.394 -0.0738 -0.1669  0.2855
27555W        W58771  23.236  25.185   7.355  0.1666  0.0535  0.1415
27556W        W58772  20.259   9.634   7.123  0.1050  0.0204  0.4765
27557W        W58773  12.467   3.614   0.020  0.1645  0.0623  0.2051
27558W        W58774  19.626  14.765   1.531  0.2712  0.1035 -0.0950
27559W        W58775   0.743   6.599   8.613 -0.2754 -0.5288 -0.2910
27560W        W58776   8.235   8.105   2.681 -0.0899  0.0851  0.0653
27561W        W58777  11.024   7.480   0.443 -0.2876  0.1711  0.0387
27562W        W58778  22.765  20.486   7.562  0.1484  0.1478 -0.0012
27563W        W58779  21.122  17.672   8.285  0.1333 -0.0411  0.1491
27564W        W58780  18.796   4.719   7.885  0.0032  0.1315 -0.1711
27565W        W58781  20.293  24.837   8.485  0.0755  0.4371  0.0140
27566W        W58782  13.629   0.895   1.945 -0.0721 -0.1238 -0.1514
27567W        W58783  17.559   2.244   1.348  0.2252  0.0967 -0.1560
27568W        W58784  21.189  27.053   9.968 -0.0687  0.2794  0.1872
27569W        W58785   5.867  13.208   7.381  0.5183  0.0990 -0.0734
27570W        W58786  13.595  17.239   0.948  0.3093  0.3063 -0.2703
27571W        W58787   5.720  24.654   0.778  0.1293 -0.0065 -0.1949
27572W        W58788  20.958  18.330   9.859  0.0100  0.3402 -0.0209
27573W        W58789  19.353  27.529   0.686 -0.2621  0.3366 -0.2644
27574W        W58790  12.704   7.958  10.420 -0.3297  0.1988 -0.1683
27575W        W58791  21.592  14.402   7.769  0.0874  0.1589  0.0221
27576W        W58792  22.219   3.355   8.460 -0.0178  0.0490  0.3772
27577W        W58793   3.149   7.862   1.368 -0.1271 -0.1255  0.0175
27578W        W58794  10.839  24.557   1.694 -0.3291 -0.1014  0.0403
27579W        W58795  17.018  22.650   0.455 -0.0617  0.1278  0.0321
27580W        W58796  25.316  18.799   9.834  0.0348 -0.5339  0.0542
27581W        W58797  13.048  26.097   3.012 -0.1940 -0.2444  0.1610
27582W        W58798  16.990  15.242   8.671 -0.0388  0.0255  0.0126
27583W        W58799   3.363  16.447   1.529 -0.4528  0.0478  0.0210
27584W        W58800  19.472   1.526   3.256 -0.2326 -0.0440  0.1736
27585W        W58801   6.106  11.501   2.297 -0.0401 -0.2456 -0.1254
27586W        W58802  21.600  20.920   2.621  0.1236  0.1036 -0.0813
27587W        W58803  14.023  24.063   9.314 -0.0449  0.0423  0.2565
27588W        W58804   0.272  15.361   1.129 -0.3522  0.2041 -0.2629
27589W        W58805  24.461   3.052   3.067 -0.2217 -0.0584  0.1884
27590W        W58806   9.321  20.186   2.281  0.0951 -0.1699 -0.4825
27591W        W58807   3.147   4.042   7.444 -0.0869 -0.1269 -0.1117
27592W        W58808  25.625   5.626   1.323  0.3501  0.1855 -0.0906
27593W        W58809  20.480  14.269   6.808 -0.1729 -0.2157  0.3621
27594W        W58810  23.383  15.569  10.385 -0.1418 -0.0571  0.0192
27595W        W58811  25.481  22.950   9.215  0.0766 -0.0104 -0.1076
27596W        W58812  21.009  24.728   1.176  0.1183 -0.0446 -0.0015
27597W        W58813   3.983  21.013   1.307  0.2169  0.0796  0.1487
27598W        W58814  21.717  10.923   0.482 -0.0013 -0.4213 -0.0100
27599W        W58815  18.243  14.967   9.353 -0.0839 -0.2515  0.2345
27600W        W58816  23.542  27.239   7.407 -0.0215  0.4031  0.2743
27601W        W58817  24.107  18.302   9.324  0.1042 -0.2275  0.1927
27602W        W58818  22.853  11.052   2.829 -0.0212 -0.3427  0.0044
27603W        W58819  18.057  20.661  10.121  0.0568 -0.0137 -0.2769
27604W        W58820  20.399   2.098   1.325  0.0493 -0.3179  0.1365
27605W        W58821  14.176  26.561   8.618 -0.0770  0.1213 -0.0572
27606W        W58822   0.863  17.256   9.898 -0.1109 -0.0332 -0.1766
27607W        W58823  22.560  14.055   9.837  0.1116 -0.0933  0.1399
27608W        W58824  26.129   2.471   8.515 -0.1995  0.1485 -0.1409
27609W        W58825   7.540  13.865   2.509 -0.0753  0.0546  0.0223
27610W        W58826   5.751   7.806   2.486  0.1213  0.4179  0.0202
27611W        W58827  20.175  21.604   2.057  0.3649 -0.0666 -0.0904
27612W        W58828   9.250   2.982   2.246  0.1008  0.0671  0.0442
27613W        W58829  27.340  17.578  10.114  0.0209  0.0308  0.3665
27614W        W58830  21.479   5.730  10.184  0.0175 -0.1409 -0.0339
27615W        W58831  26.926   7.614   1.808  0.1454 -0.1591  0.2694
27616W        W58832   1.519  24.844   0.117  0.0101  0.1906 -0.5558
27617W        W58833   2.888  15.723   3.188  0.2080 -0.1442 -0.2176
27618W        W58834   9.817   5.701   0.620 -0.0298  0.3948  0.2528
27619W        W58835  26.687  25.589   1.068  0.0257 -0.0514 -0.0074
27620W        W58836  11.729   4.181   1.478  0.2741 -0.2244 -0.3077
27621W        W58837  14.150   2.451  10.358  0.0149  0.0115 -0.0904
27622W        W58838  20.087  11.036   2.558  0.0772 -0.0028 -0.1242
27623W        W58839   2.813   6.752   9.385 -0.0228 -0.0196 -0.1899
27624W        W58840  23.646  19.999  10.239  0.3091  0.3241  0.1454
27625W        W58841   3.358   9.329   8.230  0.2099 -0.0591 -0.1316
27626W        W58842  17.549  19.313   0.860 -0.2290 -0.2350 -0.2587
27627W        W58843   5.590  21.152   1.729  0.0980  0.2061 -0.1596
27628W        W58844  14.356  10.589  10.205 -0.4541 -0.1338 -0.2542
27629W        W58845   9.138  19.530   2.001 -0.0926  0.3443 -0.1368
27630W        W58846  15.024   9.142   2.290 -0.0334  0.0907  0.0783
27631W        W58847  10.715   2.096   0.001 -0.1885 -0.0605 -0.1137
27632W        W58848   9.645   5.333   7.155  0.1737  0.1186 -0.0330
27633W        W58849  26.416   0.076   8.984  0.0682 -0.0810 -0.0681
27634W        W58850  17.470   4.970   7.671 -0.0176  0.1201  0.0216
27635W        W58851  20.638  26.514   2.365  0.3170 -0.0918 -0.2265
27636W        W58852   8.687  26.445   2.166  0.3521 -0.2801 -0.1279
27637W        W58853  16.054  12.213   9.934  0.2750 -0.1153  0.0244
27638W        W58854  12.224  13.753  10.361  0.4123  0.2655 -0.2167
27639W        W58855   8.689   9.120   1.131  0.1537 -0.0364 -0.3978
27640W        W58856  12.807  19.743   3.329  0.2019 -0.2075  0.2329
27641W        W58857  24.529  24.238   9.052 -0.2015  0.0274  0.0990
27642W        W58858  26.166  10.967   2.623 -0.0079 -0.1813  0.0796
27643W        W58859  17.449   4.024   3.491  0.2208 -0.0427  0.0089
27644W        W58860  18.255   9.527   8.199  0.0838  0.1281  0.0155
27645W        W58861  23.554  15.057   9.391  0.0604  0.0836 -0.1035
27646W        W58862  18.789  19.651   9.705  0.2406 -0.0789 -0.0654
27647W        W58863  27.482  15.670   2.992  0.2997  0.0611  0.2940
27648W        W58864   3.632  19.773   2.393  0.0083  0.3028 -0.2057
27649W        W58865  22.252   4.098   3.519  0.3086 -0.2839  0.0451
27650W        W58866  26.378  22.640   0.787  0.0080  0.0679  0.1818
27651W        W58867  16.851  11.241   1.426  0.2326  0.0250  0.1297
27652W        W58868   0.930  16.743  10.012  0.2172 -0.2912 -0.2137
27653W        W58869  11.985   7.221   3.573  0.0544 -0.0333 -0.1431
27654W        W58870   8.272   1.438   9.430  0.0626  0.1210 -0.1075
27655W        W58871  23.333  23.525   9.186 -0.2343 -0.0451 -0.1411
27656W        W58872  11.569  27.477   9.665 -0.2546 -0.0410  0.1196
27657W        W58873   5.605  10.531   8.471 -0.1776  0.0704  0.1689
27658W        W58874  16.954   3.841   2.065  0.3261 -0.2389  0.1785
27659W        W58875   3.891  20.291   0.463  0.1894  0.1750  0.1139
27660W        W58876  13.318  16.043   9.145  0.1444 -0.3051  0.2177
27661W        W58877  21.043  13.593  10.375 -0.3323 -0.0198  0.2568
27662W        W58878   1.114  18.197   2.651  0.0577  0.3463  0.1774
27663W        W58879   7.914  19.758   9.776 -0.2610  0.0392  0.1275
27664W        W58880   6.808  12.282   1.028  0.0062  0.1049 -0.0294
27665W        W58881  15.714  19.186   9.572  0.0590  0.0153  0.0061
27666W        W58882  13.952   6.994   0.870  0.1096  0.0483 -0.2066
27667W        W58883   8.667  27.442   8.229 -0.2635  0.5064  0.1552
27668W        W58884  13.758   8.732   7.880  0.0865  0.0071  0.0285
27669W        W58885  17.570  19.850   7.945 -0.2563  0.0054 -0.2252
27670W        W58886  25.107   3.807   8.733  0.0028  0.0578  0.2513
27671W        W58887  22.479   7.443   1.747 -0.0788  0.0324 -0.0793
27672W        W58888   0.893  19.765   1.279 -0.0707 -0.0283 -0.4078
27673W        W58889  25.275   8.850   7.675 -0.0978  0.0260  0.0353
27674W        W58890  10.640  20.188   3.680 -0.1539  0.1720  0.1821
27675W        W58891  23.075  22.629   8.642 -0.1308 -0.2737  0.1866
27676W        W58892   9.642   1.400   7.937  0.0400 -0.0392 -0.1585
27677W        W58893   6.656  21.545   1.699 -0.1373 -0.0224  0.1696
27678W        W58894  15.303  26.328   1.269 -0.1317 -0.0700  0.0868
27679W        W58895  23.502  19.309   0.177  0.0126 -0.0255  0.0604
27680W        W58896  21.110  10.017   0.185  0.1315 -0.1260 -0.0224
27681W        W58897   2.967  20.589   7.586  0.2926  0.3070  0.0437
27682W        W58898   5.170  12.843   1.157 -0.1673 -0.1468 -0.3754
27683W        W58899   6.928  10.341  10.053 -0.3299 -0.1869 -0.1006
27684W        W58900  25.216   1.612   9.271  0.0554  0.1330  0.0096
27685W        W58901  25.727   8.477   1.939 -0.0215  0.1347 -0.3720
27686W        W58902  18.867   3.908   2.591 -0.3780  0.0516 -0.0123
27687W        W58903  17.800  20.886   9.768 -0.0226  0.0792 -0.4448
27688W        W58904   7.726  16.361   2.153  0.1411 -0.1000 -0.1318
27689W        W58905   4.929  15.797   2.891  0.0861  0.0379 -0.0851
27690W        W58906  20.282   3.161   9.128 -0.0603 -0.1558 -0.2397
27691W        W58907  23.625   4.226   3.141  0.2025 -0.0406 -0.1375
27692W        W58908  16.768  22.557   8.731 -0.0427 -0.3123  0.2418
27693W        W58909   9.239  11.252   7.954 -0.0797  0.1967  0.2488
27694W        W58910   6.486  16.784  10.322 -0.1965  0.0052  0.0789
27695W        W58911  22.351  26.222   7.583  0.2900  0.3495 -0.1261
27696W        W58912  25.412  12.659   0.361 -0.2139 -0.2637  0.1602
27697W        W58913   4.244  24.148   9.331  0.0848  0.3679  0.0278
27698W        W58914  25.102  19.983   9.651 -0.1444 -0.1123 -0.1117
27699W        W58915  21.074  19.837   9.720  0.0386  0.1518 -0.2028
27700W        W58916   8.982  25.104   0.585  0.1217  0.3571 -0.2218
27701W        W58917  16.613   1.403   2.421  0.0797 -0.0352 -0.1705
27702W        W58918  17.246  18.152   0.196 -0.0293 -0.0017 -0.1153
27703W        W58919   0.993   7.540   8.612 -0.0146  0.1391 -0.2853
27704W        W58920  23.230   0.385   9.924 -0.2440 -0.2181 -0.0809
27705W        W58921  22.739  10.191   1.517 -0.2363  0.0512 -0.1262
27706W        W58922  11.421  15.493   9.299 -0.4109  0.2352 -0.1076
27707W        W58923  11.545   0.606  10.307  0.1181  0.1290  0.1945
27708W        W58924   6.000  15.154   9.433  0.1174  0.1980 -0.2879
27709W        W58925  17.458  25.959   3.082  0.0028 -0.0607 -0.0668
27710W        W58926  18.544  19.926   2.160 -0.0158  0.1578 -0.1285
27711W        W58927  22.132  22.161   8.380  0.1808  0.0039  0.2213
27712W        W58928  24.368  16.833   0.075 -0.0405  0.0935  0.1108
27713W        W58929   1.274  17.377   9.520  0.0361  0.2493 -0.0443
27714W        W58930  14.274  26.698   1.533 -0.0902 -0.1059 -0.4403
27715W        W58931  16.926  26.844   9.130 -0.1382 -0.0926  0.0687
27716W        W58932   0.221  21.648   1.290 -0.2749  0.2763  0.4029
27717W        W58933  20.516   9.179   0.820  0.3676 -0.0150  0.0001
27718W        W58934  16.983  27.166   3.395 -0.2193  0.0816 -0.1153
27719W        W58935  20.847   7.986  10.003 -0.0934 -0.2551 -0.3672
27720W        W58936  17.844  17.478  10.276  0.0559  0.0645 -0.2181
27721W        W58937   5.951   1.983   0.387  0.2514  0.1378  0.0090
27722W        W58938   0.345  24.239   3.038 -0.0638  0.0187  0.1635
27723W        W58939  17.563   8.921   8.090 -0.2168 -0.0556 -0.2063
27724W        W58940  18.262  19.687   2.877 -0.0388 -0.1801 -0.0118
27725W        W58941  22.578   7.783   7.798 -0.0479  0.0389 -0.0223
27726W        W58942  24.839   2.056   8.384  0.0131  0.3644 -0.0466
27727W        W58943  18.501  18.504   2.154 -0.2082  0.0277  0.1098
27728W        W58944  12.051  16.566   0.027 -0.1296  0.3764 -0.0348
27729W        W58945   0.458  10.255  10.314  0.0542  0.0844 -0.0099
27730W        W58946   1.141  11.543   9.170  0.0035 -0.0836  0.0615
27731W        W58947   1.125  18.396   0.225  0.2191 -0.2832 -0.0349
27732W        W58948  19.507  18.987   0.898 -0.2076 -0.0686 -0.1306
27733W        W58949  21.775   4.204   1.637 -0.0339 -0.2425  0.2454
27734W        W58950  14.497  24.717   3.583  0.1703  0.3212 -0.1476
27735W        W58951  26.574   4.502   8.991  0.1009  0.0199 -0.2494
27736W        W58952  14.300  25.758   2.989  0.0538  0.0160 -0.1166
27737W        W58953   8.221  25.441  10.437  0.2651  0.2170 -0.0877
27738W        W58954  24.812   3.110   3.893  0.1621 -0.1506  0.2130
27739W        W58955   5.278  22.450  10.393  0.3084 -0.0184 -0.0492
27740W        W58956  17.969  25.039   3.625  0.1312  0.1905 -0.1336
27741W        W58957  23.021  16.928   8.064  0.0736  0.3042 -0.1531
27742W        W58958  17.616   8.078   8.292  0.1689 -0.0343  0.3806
27743W        W58959  19.733  26.203   0.207  0.1962  0.3511  0.0139
27744W        W58960  23.450  10.756  10.510 -0.0201  0.4962 -0.0089
27745W        W58961  21.091   3.445  10.235 -0.2943  0.2865  0.0513
27746W        W58962   4.168   8.370  10.490 -0.2326 -0.3953 -0.0666
27747W        W58963  22.113   3.645   9.037 -0.0249 -0.1695 -0.1885
27748W        W58964   9.305  21.943  10.395 -0.1226 -0.2283  0.5163
27749W        W58965  23.747   1.141   9.481  0.2774  0.0565  0.1809
27750W        W58966   1.272  20.654  10.266  0.0339 -0.2310 -0.0280
27751W        W58967   2.559  27.459   1.165 -0.1653 -0.3287  0.0975
27752W        W58968   6.089  22.050   8.649  0.2775 -0.1537  0.1960
27753W        W58969   8.478   4.816   8.028  0.1627  0.1321 -0.1626
27754W        W58970  13.424   2.131   8.236 -0.1352 -0.3143  0.1606
27755W        W58971  23.234   3.001   2.156  0.2286 -0.1659 -0.0859
27756W        W58972   6.204   1.348   9.577  0.1768 -0.1184 -0.2991
27757W        W58973   9.738  16.352   0.181 -0.1946  0.0645  0.2437
27758W        W58974   0.875  12.003   9.657 -0.0752  0.1333 -0.0901
27759W        W58975  22.248  14.512   2.377 -0.1774 -0.1280 -0.1198
27760W        W58976   5.006  12.660   9.524  0.0469  0.0173  0.1648
27761W        W58977   7.312  25.253   0.273  0.0129 -0.1373 -0.2189
27762W        W58978  22.582  16.292   9.228  0.0723  0.1273 -0.3541
27763W        W58979   5.184  14.002   1.100 -0.3722  0.0370 -0.1883
27764W        W58980   8.040  21.439   3.596 -0.4078  0.3900 -0.2447
27765W        W58981   9.082  17.621   2.612 -0.1340 -0.4972  0.2897
27766W        W58982   0.749  25.119   0.713  0.3307  0.2743 -0.3583
27767W        W58983  27.272  23.577   1.258  0.1306  0.2406  0.2070
27768W        W58984  22.162  18.125   0.122 -0.2093  0.0366  0.2061
27769W        W58985   3.192  13.870   8.674 -0.1630  0.3238 -0.0995
27770W        W58986   8.339   4.061   1.532  0.1737  0.0106  0.0233
27771W        W58987  17.297   5.515  10.213  0.0239 -0.0082  0.1063
27772W        W58988  25.090  10.284   1.532  0.1932 -0.0285 -0.3505
27773W        W58989  24.932  13.387   0.443  0.0985 -0.0952 -0.1968
27774W        W58990   8.113   3.052   8.523 -0.1679 -0.3981  0.2640
27775W        W58991  14.316  12.209   1.047  0.2682 -0.1134  0.1394
27776W        W58992  11.691   0.988   9.451  0.3345 -0.2254  0.1088
27777W        W58993  14.173   7.506   3.030 -0.1778 -0.0242 -0.1868
27778W        W58994   7.947  19.218   0.595  0.0605  0.3758  0.0523
27779W        W58995   8.400  17.426   2.961 -0.1572 -0.0809  0.1257
27780W        W58996  26.235  10.383   2.362  0.0053  0.1557  0.0066
27781W        W58997  22.371  10.443   0.600  0.0796  0.1583 -0.2190
27782W        W58998  12.782  13.231   1.825  0.1201  0.2696  0.3172
27783W        W58999   9.298  17.028   0.472  0.2539  0.3084 -0.0791
27784W        W59000   8.880   4.029   9.744  0.0127 -0.1316  0.0457
27785W        W59001  20.143  21.655   3.478 -0.3574 -0.0047  0.0394
27786W        W59002  26.602  14.011   2.302  0.2911 -0.1660 -0.1360
27787W        W59003  11.800  23.835   8.613  0.0858 -0.0814 -0.0696
27788W        W59004  20.566  16.210   1.296  0.0245 -0.0495  0.1903
27789W        W59005  26.298  11.686   8.368 -0.3312  0.1675 -0.1253
27790W        W59006  17.160   1.424   1.736 -0.2009  0.0661  0.4093
27791W        W59007  15.511  25.852   8.346  0.1196  0.2161  0.0159
27792W        W59008   4.252  20.331  10.084  0.0254 -0.4033 -0.1040
27793W        W59009  11.656  19.847   1.616 -0.0886 -0.0296 -0.0227
27794W        W59010  22.587   2.138   8.162 -0.1308 -0.0303  0.1779
27795W        W59011  16.037  27.275   3.530  0.0822 -0.0954 -0.0014
27796W        W59012  27.425  27.064   3.673 -0.2656  0.2199  0.0879
27797W        W59013  21.738  21.061  10.272 -0.2505 -0.0067 -0.0237
27798W        W59014   8.398   7.254   2.860 -0.2430 -0.1099  0.2553
27799W        W59015  25.514  17.732   2.359 -0.0759 -0.2208 -0.1771
27800W        W59016   7.881  15.192   3.473 -0.1163  0.2888 -0.0772
27801W        W59017  23.552  20.987  10.276  0.1450 -0.0882  0.0289
27802W        W59018  17.473  26.577  10.383 -0.2311 -0.1670  0.0144
27803W        W59019  16.407  22.863   2.139 -0.1581 -0.0855 -0.0693
27804W        W59020  12.030   2.655   0.399  0.4962 -0.1958 -0.0528
27805W        W59021  18.644  23.469   0.144 -0.2474 -0.1090 -0.0858
27806W        W59022  12.137  19.525   7.613  0.2494 -0.1878 -0.0060
27807W        W59023   9.384  23.906   2.639  0.1567  0.1030  0.0825
27808W        W59024  20.943   4.880   8.592  0.0067  0.0549  0.3013
27809W        W59025   9.782  19.470  10.353 -0.3960  0.1414  0.1103
27810W        W59026   7.801   1.365   2.884  0.3008  0.0536 -0.0634
27811W        W59027  24.460  12.381   8.056 -0.0832  0.0111  0.1808
27812W        W59028   9.279  20.471   9.244 -0.0461 -0.3125  0.0001
27813W        W59029  17.300  19.917   1.810 -0.0494 -0.0504 -0.2511
27814W        W59030  13.334  13.687   0.471  0.0013 -0.0478  0.1953
27815W        W59031   7.366  20.676   1.243  0.0826 -0.0222  0.0399
27816W        W59032   2.142  21.112   8.298 -0.0258  0.2919 -0.0755
27817W        W59033  26.858  27.273   2.635 -0.2349 -0.1822 -0.0101
27818W        W59034  12.348  22.754   1.346  0.1472 -0.0947  0.1918
27819W        W59035   7.554  25.818   3.204 -0.2265  0.1930 -0.0898
27820W        W59036   8.032  12.095   9.262  0.2277 -0.1643 -0.0196
27821W        W59037  14.957  20.251   8.654 -0.1151  0.2513  0.0255
27822W        W59038  25.034  13.223   7.967 -0.0673  0.0447 -0.1689
27823W        W59039   2.712  13.250   6.775 -0.0902 -0.0507  0.2342
27824W        W59040   3.504   8.837  10.324 -0.0754  0.2279  0.4888
27825W        W59041  25.439  19.830   0.479  0.2053  0.0566 -0.1837
27826W        W59042  22.399  12.663   9.398  0.0099 -0.2046 -0.3890
27827W        W59043  22.268   5.871   9.244  0.2062 -0.0458 -0.0975
27828W        W59044  26.774  11.358   7.744  0.1613 -0.1824 -0.0976
27829W        W59045   6.618   1.805   8.992  0.0183 -0.2593  0.0275
27830W        W59046   8.989  15.276   0.177 -0.2614  0.0023  0.1069
27831W        W59047  13.193  27.239  10.479 -0.2234  0.0459 -0.1935
27832W        W59048  21.173   1.980   2.486  0.3363 -0.0282  0.1175
27833W        W59049   8.448   2.718   8.556  0.1955  0.0104 -0.1678
27834W        W59050   4.091   2.949   1.007  0.1871  0.4169  0.1620
27835W        W59051  26.177  13.297   1.649  0.0050 -0.0559 -0.2733
27836W        W59052  23.886  14.719  10.131 -0.1933  0.0414  0.0698
27837W        W59053  17.900  19.214   2.738  0.0279 -0.2423  0.0669
27838W        W59054   2.528  13.623   3.505 -0.0052 -0.1943 -0.2850
27839W        W59055   9.529  27.294   8.468 -0.1359  0.1327  0.1275
27840W        W59056  23.750  15.127  10.406 -0.0777 -0.1293  0.1343
27841W        W59057   9.613   7.061   0.022  0.4492 -0.2657  0.0390
27842W        W59058  24.846   7.653   1.174  0.4905 -0.0046 -0.2524
27843W        W59059  18.490  26.022   3.017 -0.2439  0.2291 -0.1213
27844W        W59060  20.050   7.986   7.723  0.1803  0.0025  0.0707
27845W        W59061  12.350  10.845   0.555 -0.0173  0.1510 -0.0150
27846W        W59062   4.295   4.401   3.276 -0.1902 -0.0952 -0.1141
27847W        W59063   0.439   7.490   1.028  0.2060  0.0139 -0.0981
27848W        W59064  13.061  13.593   1.605  0.0573  0.4180  0.0683
27849W        W59065   6.558  13.692   0.196 -0.2822 -0.3174 -0.1770
27850W        W59066  25.345   6.971   3.264  0.0453 -0.1981  0.1674
27851W        W59067  27.527  16.873   0.106 -0.3077  0.1609 -0.0665
27852W        W59068  16.033  19.293   2.027  0.0105  0.0980  0.3477
27853W        W59069   1.141  15.949   1.405 -0.2617 -0.0451 -0.1120
27854W        W59070   8.339   8.515   1.923  0.1377 -0.0005 -0.1272
27855W        W59071  22.614  20.471   8.946 -0.3990 -0.3259  0.0178
27856W        W59072  24.160   4.444   0.889  0.2829 -0.1930  0.1751
27857W        W59073   4.444  24.686   3.087  0.0938  0.0229  0.1393
27858W        W59074   9.120  23.853   2.204 -0.0611  0.1776 -0.1933
27859W        W59075   2.075  12.608   9.263 -0.0433 -0.0766  0.2207
27860W        W59076  15.070  19.851   9.543 -0.0688  0.2878  0.2109
27861W        W59077   6.654  26.660   9.178 -0.1960 -0.0262  0.1281
27862W        W59078  21.846  27.461   0.049 -0.2398  0.0329  0.3691
27863W        W59079  12.576  13.466   3.565 -0.0202 -0.0150 -0.0619
27864W        W59080  18.034   0.460   1.433 -0.2139  0.0654  0.1781
27865W        W59081  17.458  19.922   3.079  0.2230 -0.3671  0.3741
27866W        W59082   5.755  24.087   2.810 -0.0102  0.1142  0.2274
27867W        W59083  27.550   8.972   1.265 -0.0589 -0.3146 -0.2993
27868W        W59084  22.104   2.738   0.330 -0.0468  0.1219 -0.0255
27869W        W59085   9.136   5.097   0.686  0.0051  0.2322  0.1009
27870W        W59086  15.881  22.337   9.395  0.1743 -0.4194  0.0529
27871W        W59087   5.562   2.768   8.330 -0.0362 -0.2795 -0.0744
27872W        W59088  13.602   0.244   3.328 -0.1060 -0.5102 -0.1220
27873W        W59089  18.327  26.684   1.602  0.1076  0.1096 -0.0053
27874W        W59090   9.214   8.635   3.220  0.3955 -0.0718 -0.2128
27875W        W59091  14.242  25.237   1.231 -0.1644  0.1928 -0.0134
27876W        W59092  26.192  24.489   8.290  0.0248  0.0175 -0.0033
27877W        W59093   1.787  15.511   1.358  0.0470 -0.0021  0.1229
27878W        W59094   9.455   1.655   3.491 -0.2026  0.0208 -0.0519
27879W        W59095   1.351  22.445   9.078 -0.1658  0.1101 -0.2142
27880W        W59096  23.556  13.756  10.342  0.0409  0.2943 -0.1002
27881W        W59097  12.710   5.482   9.741  0.0455 -0.1182 -0.2118
27882W        W59098  15.671  19.985   0.753 -0.2017  0.2476  0.0317
27883W        W59099  11.082  24.986   2.435  0.1460  0.0382 -0.1653
27884W        W59100   4.600  17.291   0.741  0.3587 -0.0235 -0.0267
27885W        W59101   1.952  26.462   1.932  0.0599  0.0850  0.3623
27886W        W59102  16.977  26.818   9.817 -0.0008 -0.1563  0.2257
27887W        W59103  14.452  15.311   3.648  0.2709  0.0341 -0.0123
27888W        W59104  12.844   0.512   0.158  0.2772  0.0332 -0.0321
27889W        W59105  15.526   3.931   3.044 -0.4033 -0.2256  0.0952
27890W        W59106  16.906  14.729   0.846  0.2122 -0.3279 -0.1774
27891W        W59107  26.593   6.868   1.608 -0.2710  0.1086  0.0161
27892W        W59108   4.815   7.696   8.817  0.0939 -0.0727 -0.0278
27893W        W59109  12.310  15.542   2.943  0.1659 -0.3168 -0.0017
27894W        W59110   4.279  19.772   1.403 -0.0326 -0.2133  0.3866
27895W        W59111  16.839  27.276   9.469 -0.0479 -0.2716  0.0989
27896W        W59112  20.816   4.098   9.181  0.0831 -0.0208 -0.2627
27897W        W59113  19.990  27.107   1.789  0.2137  0.1073 -0.1125
27898W        W59114  15.136  13.558  10.126  0.0508  0.0649  0.0277
27899W        W59115  18.260  14.165   9.848 -0.0536  0.2153  0.2538
27900W        W59116  23.390  19.120   0.935 -0.1045 -0.3080 -0.1265
27901W        W59117  15.323  27.560   3.094 -0.2163 -0.0827  0.0609
27902W        W59118  24.710  19.445   8.730 -0.0410  0.0472  0.1347
27903W        W59119   4.695   8.513   8.062  0.0493 -0.0229 -0.0618
27904W        W59120   4.570  22.914   7.861 -0.1023 -0.0094 -0.0982
27905W        W59121  25.933   9.442   2.315  0.0473  0.2109 -0.1150
27906W        W59122  16.595  16.098   0.585 -0.2089 -0.0408 -0.0977
27907W        W59123  16.140   1.804   8.579 -0.0699  0.2201 -0.1160
27908W        W59124  21.973  24.594   2.182 -0.1365  0.1074  0.1034
27909W        W59125   7.066   3.289   8.420  0.1883  0.3451 -0.0771
27910W        W59126  27.078  18.746   9.671 -0.1427 -0.0357  0.1508
27911W        W59127  27.039  16.481   0.818  0.0717  0.3353 -0.2476
27912W        W59128   2.231   6.685   8.274  0.2874 -0.1970 -0.1951
27913W        W59129  22.690   9.765   8.579  0.3797  0.0009  0.3482
27914W        W59130   1.346  15.503   0.994 -0.2765 -0.1937  0.0620
27915W        W59131   7.908  21.234   0.786 -0.0540 -0.0002 -0.2348
27916W        W59132   9.648  15.352   3.642 -0.0639 -0.0288 -0.1334
27917W        W59133  24.879   9.772   1.272  0.2507 -0.0428  0.3341
27918W        W59134  16.101   4.539   2.049  0.2040  0.0130  0.0196
27919W        W59135  15.193  12.767   8.569 -0.4774 -0.0813  0.0756
27920W        W59136   9.994  20.365   0.262 -0.2416 -0.0071  0.2983
27921W        W59137   9.971   5.675  10.468 -0.3792 -0.0587 -0.2084
27922W        W59138  15.645  24.507   8.633 -0.0113  0.0624 -0.2672
27923W        W59139   1.698   8.792   1.670  0.1291 -0.0945 -0.2293
27924W        W59140  20.815   3.770   3.866  0.2124  0.0028 -0.1247
27925W        W59141   4.666  12.670   9.068 -0.0268  0.1855 -0.1201
27926W        W59142  18.301  18.550   0.777  0.1184 -0.0158  0.1240
27927W        W59143  24.996  20.682   2.757 -0.1419  0.1037  0.1590
27928W        W59144   0.932  23.340  10.218  0.0923 -0.2292  0.3116
27929W        W59145   8.129   7.124   9.221  0.0990 -0.0148 -0.0111
27930W        W59146  19.440   5.565   0.666 -0.0780 -0.1748  0.0159
27931W        W59147  14.448  20.934   9.547 -0.1186 -0.0066  0.3790
27932W        W59148  25.787  23.746   9.681  0.1799  0.1771 -0.0400
27933W        W59149   9.602  16.758   3.296 -0.0700  0.0290 -0.3450
27934W        W59150  17.968  19.719   1.655  0.0557  0.0030 -0.1659
27935W        W59151  22.090   4.614   1.472 -0.0976  0.1109  0.0695
27936W        W59152   1.639   8.888   8.846 -0.0551  0.2503  0.0743
27937W        W59153  13.329   8.462   0.666 -0.1938 -0.2210  0.3110
27938W        W59154   8.629   3.097   1.590  0.1432  0.2464 -0.1018
27939W        W59155   5.029   8.601   8.591  0.2072 -0.1053 -0.4340
27940W        W59156   9.533  26.898   1.143 -0.1876 -0.1934  0.0729
27941W        W59157   7.490   3.949   8.803 -0.0738 -0.2052  0.0749
27942W        W59158  11.190  12.535   2.163  0.1205  0.0826 -0.0867
27943W        W59159  26.911  16.208   1.305 -0.0146  0.1180 -0.1219
27944W        W59160  15.650  20.595   8.326  0.0771 -0.0957  0.3079
27945W        W59161  20.145   3.466   8.067  0.0588  0.1343 -0.4019
27946W        W59162  13.952  14.334   2.255 -0.2048  0.0263 -0.0912
27947W        W59163  18.244   4.672   1.806 -0.2598  0.0029 -0.1363
27948W        W59164  25.860  22.645   9.251  0.2152 -0.0251 -0.3425
27949W        W59165   7.759  15.522  10.222  0.0711  0.1816  0.0082
27950W        W59166  22.238  10.559   3.254  0.0144 -0.1158 -0.0245
27951W        W59167   9.795  15.282  10.243 -0.1818  0.4243 -0.0606
27952W        W59168  21.515  11.196   9.697  0.0327  0.0074 -0.3009
27953W        W59169  25.695   3.062   8.723  0.0245  0.4780 -0.3683
27954W        W59170   0.749   1.063  10.489  0.0138  0.0548  0.2389
27955W        W59171   3.087   6.854   7.879 -0.0057 -0.0473  0.1253
27956W        W59172  20.740  23.798   2.745 -0.0380 -0.2635 -0.0067
27957W        W59173  26.676  19.052   1.424 -0.3158  0.4689  0.1591
27958W        W59174   0.335   1.313   8.973 -0.1278 -0.0931 -0.2642
27959W        W59175  19.066   6.307   1.371  0.0477  0.1831  0.2349
27960W        W59176  23.882  26.088   8.686  0.0773  0.3035 -0.2615
27961W        W59177   3.777  16.219   2.214  0.1175  0.0502  0.2665
27962W        W59178   8.149  25.243   0.373  0.0391  0.2841  0.1182
27963W        W59179  26.138   3.511   9.485  0.1804  0.2590 -0.1418
27964W        W59180   5.687   9.030   1.923 -0.0257 -0.2770  0.0410
27965W        W59181  25.389   1.786  10.341  0.0785 -0.1704 -0.2005
27966W        W59182   8.907   6.463   2.956 -0.0954  0.0593  0.0045
27967W        W59183  10.872   9.396   9.889  0.1150  0.2783 -0.0827
27968W        W59184   9.681  13.073   2.223 -0.1106 -0.0804 -0.1656
27969W        W59185  26.546  14.217   2.986 -0.0081  0.1794 -0.4316
27970W        W59186  22.106   8.709   2.114 -0.0690  0.2694 -0.0812
27971W        W59187   9.521   4.098   3.108 -0.0553 -0.0628 -0.0437
27972W        W59188  23.665  16.850   9.785  0.3360 -0.3225  0.1628
27973W        W59189  21.330  26.476  10.386  0.3295  0.0014 -0.1370
27974W        W59190   8.518  16.058   0.546 -0.3865  0.0863 -0.2700
27975W        W59191   6.929   8.581   2.006  0.3309  0.3710 -0.2368
27976W        W59192  20.804  11.065   8.282  0.0581 -0.2957 -0.0494
27977W        W59193  11.163   7.744   1.222 -0.1827  0.1457  0.1146
27978W        W59194  19.072  10.760   0.429  0.0577 -0.0853 -0.0894
27979W        W59195  21.668   7.725   8.942 -0.1966 -0.2659  0.1175
27980W        W59196  22.620  13.805   8.182  0.1197  0.1254 -0.0299
27981W        W59197  12.965   6.345   2.089 -0.0252 -0.0949 -0.1020
27982W        W59198  24.156   3.698   1.393 -0.1466 -0.0334 -0.0731
27983W        W59199  21.483  12.124   1.333 -0.1716  0.1233 -0.0888
27984W        W59200   7.726   3.146  10.441 -0.2280  0.1520  0.0805
27985W        W59201  12.860  19.731   2.434  0.1152 -0.2412  0.3635
27986W        W59202   4.669  26.661   2.778 -0.0723  0.1554 -0.1303
27987W        W59203   5.892   1.239   8.498  0.2141  0.0784 -0.0175
27988W        W59204  20.404  14.774   9.636  0.2136  0.2390  0.0639
27989W        W59205  15.156   0.721   3.975  0.0845 -0.2643  0.1060
27990W        W59206   8.577  20.192   8.398 -0.0638  0.0358  0.2113
27991W        W59207   0.146  19.517   8.753 -0.0253 -0.0563  0.1409
27992W        W59208  24.644   4.925   9.602 -0.0071 -0.1046  0.1478
27993W        W59209  21.643  15.177   0.284 -0.3205  0.1214  0.0493
27994W        W59210  25.111  24.936  10.019 -0.1916 -0.1637 -0.0180
27995W        W59211   9.375   9.639   9.574  0.3349  0.1097  0.2407
27996W        W59212  21.331  11.397   0.700 -0.2064 -0.0824 -0.0059
27997W        W59213  11.256  25.869   9.473 -0.0498 -0.1954 -0.0547
27998W        W59214   3.072   4.535   2.711 -0.0619  0.1662 -0.1752
27999W        W59215  18.328   0.102   8.892  0.0182  0.3778  0.0486
28000W        W59216   8.297   6.910  10.194 -0.2879 -0.1247 -0.1133
28001W        W59217   9.704  20.253   0.703  0.0362  0.1839  0.1400
28002W        W59218   8.737  22.271   8.762 -0.0385  0.1033  0.0820
28003W        W59219   6.789  20.432   9.168 -0.3165 -0.0094 -0.1649
28004W        W59220   1.841  26.571   0.366  0.1655 -0.1736  0.0847
28005W        W59221   0.012  16.729   1.423 -0.0639 -0.2657 -0.2112
28006W        W59222  15.043   1.888   2.175  0.0850 -0.1317 -0.1438
28007W        W59223  21.390  15.742   9.681 -0.0450 -0.4585 -0.1313
28008W        W59224  13.454  25.451   2.208  0.0739  0.2272  0.3084
28009W        W59225   2.694   1.485   0.026 -0.2329  0.0398 -0.0414
28010W        W59226  16.724  18.412   2.375  0.0666  0.2767 -0.0356
28011W        W59227   2.796  23.559   2.522  0.1318  0.0502  0.3581
28012W        W59228   7.802  10.707   8.295 -0.1509  0.0842 -0.0733
28013W        W59229  15.846  26.499   2.933  0.0766 -0.2902  0.0627
28014W        W59230   4.930   7.701   9.684 -0.1251 -0.1487 -0.1194
28015W        W59231  13.901  16.354   8.434 -0.0087 -0.2447 -0.3203
28016W        W59232   4.206   0.756   1.371  0.0580  0.1628  0.0553
28017W        W59233  21.106   4.888   1.910  0.2479 -0.0122  0.1268
28018W        W59234   0.790  24.581   8.668  0.1160  0.3812 -0.2653
28019W        W59235   4.901   4.571   1.637  0.0260 -0.0261 -0.2522
28020W        W59236   1.276  16.809   7.718  0.1274 -0.3110  0.1804
28021W        W59237   9.477  18.715   2.830  0.3317  0.4894  0.0420
28022W        W59238   9.391   5.100   1.465  0.0420 -0.1108  0.0254
28023W        W59239  11.757   0.578   9.706 -0.0667 -0.2629  0.0536
28024W        W59240   1.453   0.466   0.725 -0.4777  0.1785  0.2892
28025W        W59241  11.757  11.164  10.060 -0.0707 -0.0174 -0.4750
28026W        W59242   7.125  22.988   3.551 -0.0515 -0.0658  0.0961
28027W        W59243  14.532  26.817   9.556 -0.2724  0.1513  0.0230
28028W        W59244  20.421   8.036   2.488  0.1864  0.1218  0.1197
28029W        W59245   5.813  23.175   9.227 -0.0466 -0.3938  0.0063
28030W        W59246   2.070  18.236  10.149 -0.1330 -0.0009  0.1818
28031W        W59247  13.019  15.400   2.637  0.0796 -0.1202 -0.1998
28032W        W59248  11.679  15.250   9.676 -0.0864 -0.3222  0.3484
28033W        W59249  18.463  19.666  10.156  0.1505 -0.0198  0.1421
28034W        W59250  14.171  19.662  10.261 -0.1555 -0.0290 -0.5126
28035W        W59251   1.047   1.646   9.314 -0.1134  0.1083 -0.0384
28036W        W59252  24.803   2.110   1.535 -0.0251 -0.3585 -0.3694
28037W        W59253  23.665  27.317   3.414  0.1923  0.1420 -0.2484
28038W        W59254  25.975   8.327   0.835  0.0923  0.1713 -0.1664
28039W        W59255  18.489  25.548  10.541  0.1087  0.2597 -0.1847
28040W        W59256  21.100  20.319   0.613 -0.1225 -0.0579  0.0030
28041W        W59257  23.078   0.959   9.549 -0.0459 -0.0779 -0.0616
28042W        W59258  22.469  12.331   0.290  0.1417 -0.2135 -0.1765
28043W        W59259  10.224   2.691   1.985  0.3213  0.3660  0.1072
28044W        W59260   4.096  20.138   0.001  0.0237 -0.0750 -0.0765
28045W        W59261  18.372  12.413   2.207 -0.0993  0.1508  0.4187
28046W        W59262  24.373  27.607   7.999  0.0445 -0.2882 -0.1799
28047W        W59263  14.920  26.580   2.263 -0.2385 -0.0299  0.0028
28048W        W59264  24.615  11.779   1.023 -0.0319 -0.0486  0.0046
28049W        W59265   8.428  24.952   8.345 -0.0700  0.0089 -0.0181
28050W        W59266  19.255  27.071   7.488  0.0804 -0.1976 -0.1277
28051W        W59267   6.386  26.162   0.563  0.1023 -0.0606 -0.1637
28052W        W59268  26.849  15.858  10.436 -0.2465 -0.0141 -0.2104
28053W        W59269  14.443   6.618   8.968  0.2007  0.0995 -0.2601
28054W        W59270  12.397   6.319   9.885 -0.2150 -0.1558  0.2245
28055W        W59271   2.641  21.898   0.549  0.0969 -0.2060  0.2976
28056W        W59272  13.197  23.671   0.662 -0.6084  0.1470 -0.0861
28057W        W59273  12.220   9.935   8.469  0.1312 -0.0032 -0.0346
28058W        W59274  20.977   7.515   9.399  0.3730  0.1109 -0.0909
28059W        W59275  26.795   5.720  10.336  0.4319 -0.0050  0.0278
28060W        W59276  26.682  22.168   8.250 -0.2183 -0.0369  0.2191
28061W        W59277  10.635  20.219   2.801 -0.1196  0.0075  0.0389
28062W        W59278  11.189  15.786   2.221 -0.0430  0.0337  0.0307
28063W        W59279  16.037  18.692  10.256 -0.0145 -0.1774  0.0285
28064W        W59280  21.442  20.244   8.274  0.2182 -0.0165  0.0535
28065W        W59281  26.923  10.603   8.932  0.2396 -0.0622 -0.1934
28066W        W59282  12.241   4.785   9.179  0.0520 -0.1554  0.2293
28067W        W59283   5.873  10.917   0.038 -0.1432 -0.1686 -0.1261
28068W        W59284  17.868  26.709   8.892  0.1616  0.3225 -0.3706
28069W        W59285  15.544  27.089  10.271 -0.0849  0.2332 -0.1203
28070W        W59286  17.627  17.311   2.574 -0.3475  0.0063 -0.1697
28071W        W59287   3.115   2.783   1.515 -0.0167 -0.0736  0.1765
28072W        W59288   8.161  20.035   9.094  0.1985 -0.0446 -0.0571
28073W        W59289  11.999  24.456   2.553 -0.1231  0.2110  0.0362
28074W        W59290  13.662  18.603   9.367  0.2041  0.3124 -0.5017
28075W        W59291  12.675  21.343   0.308 -0.2009  0.0058  0.3537
28076W        W59292  15.593  11.163   0.501  0.2282 -0.2043 -0.0067
28077W        W59293  22.760  21.597   8.669  0.0463  0.1980  0.1719
28078W        W59294  20.007   7.927   0.383 -0.0890  0.1302  0.3390
28079W        W59295   5.609  23.780   9.928  0.1231  0.2554  0.2164
28080W        W59296   0.678  19.718   9.871 -0.0919  0.0034 -0.0501
28081W        W59297   8.752   0.719   9.742 -0.1562  0.1665  0.0833
28082W        W59298  23.633   2.232   0.125  0.1341  0.0753  0.0059
28083W        W59299  23.490   9.588   9.366 -0.2282 -0.0654  0.0300
28084W        W59300  18.260  16.530   2.625  0.1101  0.1622 -0.2214
28085W        W59301  14.475  19.644   1.933 -0.1944  0.1178 -0.1321
28086W        W59302   4.438   3.442   8.026 -0.2182 -0.1318 -0.1248
28087W        W59303  20.108   2.202   9.207 -0.0606  0.0181 -0.0437
28088W        W59304   7.039   4.667   7.387  0.0827  0.1112  0.1759
28089W        W59305  19.153  18.717   8.225  0.2250 -0.0873 -0.1695
28090W        W59306   8.738  10.154   9.967  0.2149  0.2358 -0.0992
28091W        W59307  10.640   4.993   9.994 -0.0435 -0.2450 -0.1645
28092W        W59308   1.906   6.314   7.807  0.0945 -0.2236  0.2971
28093W        W59309  21.398   6.767   3.128 -0.5203 -0.2268  0.0713
28094W        W59310  19.070  12.640   0.320 -0.2137 -0.0031  0.1853
28095W        W59311   6.151   9.681   9.261  0.2520 -0.1025  0.0178
28096W        W59312   5.012   3.583   3.087 -0.1275 -0.1784 -0.0716
28097W        W59313   2.540   9.150   1.862  0.0666 -0.1127 -0.0442
28098W        W59314   8.798  18.384  10.541  0.3332 -0.0140 -0.0259
28099W        W59315  12.009  18.587   7.585 -0.2819 -0.0259 -0.0523
28100W        W59316  26.438   1.056   2.720  0.1514 -0.3836 -0.2507
28101W        W59317   7.746   8.806   1.927 -0.0999 -0.0775 -0.1185
28102W        W59318  16.753   4.476   3.266  0.0964 -0.1306 -0.0524
28103W        W59319  12.204   7.828  10.541 -0.0974 -0.4404 -0.1145
28104W        W59320  10.716  15.669  10.293 -0.2181  0.2154  0.0083
28105W        W59321  14.572   9.212   7.531 -0.0375 -0.1180 -0.0832
28106W        W59322  19.719   7.585   9.209  0.1024 -0.0590  0.2704
28107W        W59323   6.960   5.969   2.291 -0.0590  0.1205  0.2889
28108W        W59324  12.214  12.983  10.090 -0.0559  0.1104  0.1812
28109W        W59325   9.259  23.822   1.746 -0.1550  0.3372  0.2142
28110W        W59326  15.386  18.897   1.119  0.0558  0.0130 -0.6252
28111W        W59327  22.634  23.133   2.043 -0.3008 -0.1881 -0.1193
28112W        W59328  20.147   2.739   3.174  0.2407  0.0347 -0.2419
28113W        W59329  12.287   0.854   8.980 -0.2752 -0.2041 -0.0916
28114W        W59330   6.209   7.333  10.295  0.2005  0.2652 -0.4169
28115W        W59331  11.346   4.250   9.830 -0.1448 -0.1406  0.1135
28116W        W59332  25.546  12.308   2.374 -0.1168 -0.1202  0.0883
28117W        W59333  21.581  16.843   9.774  0.0317 -0.3172  0.1941
28118W        W59334   7.202  12.355   9.598 -0.0352 -0.0912 -0.0829
28119W        W59335  23.025  24.904   8.888  0.1431 -0.2738  0.1171
28120W        W59336  15.362   7.102   3.484  0.0404  0.2109 -0.2365
28121W        W59337  19.864  22.504   3.451 -0.0189 -0.1293  0.0328
28122W        W59338  14.838   7.959   8.085 -0.0584  0.0117  0.1104
28123W        W59339   8.515   6.364   9.339  0.0988  0.1357 -0.0074
28124W        W59340   5.563  11.665   3.426  0.0127  0.2228  0.1645
28125W        W59341  17.588   5.572   0.966  0.0572 -0.8345 -0.1585
28126W        W59342  21.428  12.796  10.218  0.2825 -0.1608 -0.0400
28127W        W59343  23.187   5.704   1.079  0.2867 -0.4147  0.2517
28128W        W59344   8.494  19.861   3.574  0.2988 -0.2031 -0.2413
28129W        W59345  13.223  21.846   9.288  0.1565 -0.1315 -0.1380
28130W        W59346   9.423  14.364   9.278  0.2511  0.1330  0.1996
28131W        W59347  24.671   2.605   2.944 -0.2103  0.2528  0.0630
28132W        W59348  22.521  18.127   9.141  0.2509  0.0082 -0.3693
28133W        W59349   2.240  21.518   2.956  0.1355 -0.0292 -0.1264
28134W        W59350   6.230   0.628   2.359  0.0020 -0.3713  0.1415
28135W        W59351  23.408  17.912   1.553 -0.0229  0.2787  0.1619
28136W        W59352   1.886  22.169   9.512  0.0056  0.3204  0.0311
28137W        W59353  13.753   2.550   3.208 -0.0648  0.0830  0.1252
28138W        W59354  17.456  10.788   7.903  0.0716 -0.0339  0.2246
28139W        W59355   7.831   9.033   9.974  0.3451  0.1454 -0.4229
28140W        W59356  26.348   3.317  10.314  0.0244  0.2048  0.1893
28141W        W59357  21.394   1.879   8.313 -0.0857 -0.1490  0.0041
28142W        W59358   6.020  23.926   1.577 -0.1316 -0.0639  0.2085
28143W        W59359  19.966  22.797  10.531  0.0141  0.4444  0.1301
28144W        W59360  17.395  15.961   1.023  0.4681 -0.0084  0.3549
28145W        W59361  21.626  18.084   1.981 -0.0829  0.3636  0.0981
28146W        W59362   4.680  22.796   9.905  0.2745 -0.0074  0.0989
28147W        W59363   9.345  18.969   1.895  0.1982  0.3429 -0.1009
28148W        W59364   3.355   9.088   7.679  0.1608  0.1513  0.0556
28149W        W59365   6.384  27.502   0.246 -0.0532 -0.1003 -0.2542
28150W        W59366  16.279   0.500   8.997  0.0547  0.2178  0.1076
28151W        W59367  14.653  16.838   7.221  0.3946 -0.0137 -0.0129
28152W        W59368  21.938   2.600   9.702 -0.4594  0.1490  0.4150
28153W        W59369  26.635   8.153   1.858  0.1748  0.1044  0.3753
28154W        W59370   3.815  21.891   7.399  0.1127 -0.1290 -0.0310
28155W        W59371  22.897  11.800   9.522 -0.3789 -0.0739  0.1861
28156W        W59372   1.011  11.062   9.048 -0.3240  0.1774 -0.1769
28157W        W59373   9.149   8.740  10.394 -0.1821 -0.2695 -0.2720
28158W        W59374  26.048  18.206   9.314 -0.1629  0.0032 -0.0090
28159W        W59375   1.862  15.553   8.938  0.2885 -0.3102  0.0317
28160W        W59376   7.880  12.749   2.906  0.0827 -0.0664  0.0858
28161W        W59377  26.339  13.560   0.885  0.0444  0.0911  0.0136
28162W        W59378  14.214  24.542   0.075  0.1421 -0.1083  0.0002
28163W        W59379  23.806  10.403  10.528 -0.2393  0.3245  0.3275
28164W        W59380  18.546   8.788   2.744 -0.2257 -0.3697  0.3132
28165W        W59381  20.687   7.683   1.632  0.0974  0.1084  0.0808
28166W        W59382   3.703  22.982   1.088 -0.3330  0.0624 -0.3291
28167W        W59383  13.100  14.380   3.223  0.0306  0.0741  0.0366
28168W        W59384   9.708  17.640  10.325 -0.0251 -0.1666 -0.0061
28169W        W59385   6.656  17.204   9.995 -0.0486  0.1074  0.1926
28170W        W59386  19.566  11.219   2.357 -0.1653  0.1179 -0.0404
28171W        W59387   8.086  16.871   8.805  0.0309  0.1994 -0.1154
28172W        W59388   2.671   0.047   1.670 -0.1238 -0.2585  0.0073
28173W        W59389   9.035  14.789   8.049 -0.0739  0.0403  0.0725
28174W        W59390   5.541  25.829   9.515 -0.1293 -0.3062  0.6123
28175W        W59391  24.777  24.280   3.158  0.6047  0.2107  0.2627
28176W        W59392   7.720  18.461   1.773 -0.0063  0.0285 -0.1320
28177W        W59393   8.967   5.142   1.147  0.0537  0.1075  0.3793
28178W        W59394  17.516  20.045  10.006 -0.0100  0.0364  0.1752
28179W        W59395  17.381  11.389   1.505  0.0080 -0.0930  0.4219
28180W        W59396  11.812  16.539   9.069 -0.1903  0.0247  0.5678
28181W        W59397  23.232  26.890   8.367  0.0050 -0.2158  0.1910
28182W        W59398  27.409  12.183   2.850 -0.1760  0.2970 -0.0047
28183W        W59399  19.175  15.749   3.401 -0.0575  0.1234 -0.0458
28184W        W59400  25.215  27.116   9.823  0.2739 -0.0998 -0.3996
28185W        W59401  17.324  25.066   7.715 -0.0132  0.0328  0.3804
28186W        W59402   4.623  17.993   2.332  0.1386  0.0025  0.1951
28187W        W59403  15.760  16.950   0.819  0.1977 -0.1286  0.1075
28188W        W59404   9.258  20.982   9.002 -0.4689 -0.1048 -0.0137
28189W        W59405   5.789   1.999  10.371 -0.1504 -0.0048  0.2146
28190W        W59406  15.820  16.002   3.302 -0.1650 -0.2303 -0.0501
28191W        W59407  14.801   1.570   3.416  0.1785 -0.0388  0.0454
28192W        W59408   0.684  17.107   2.596 -0.0683  0.0836  0.0372
28193W        W59409   1.740   8.507   1.299 -0.2468 -0.1205  0.1768
28194W        W59410   2.549   2.348   3.211 -0.0084  0.1743  0.1578
28195W        W59411  23.818  17.302   1.884  0.2983  0.0423  0.2489
28196W        W59412   8.232  21.776  10.502  0.0563 -0.3216  0.0376
28197W        W59413   4.821  11.448   7.101 -0.0276 -0.0992  0.1007
28198W        W59414   1.473   0.407   3.019  0.1820 -0.2628  0.1354
28199W        W59415  27.062   1.422   8.921  0.1886 -0.0849  0.0399
28200W        W59416   7.435  20.906   1.797 -0.0426 -0.3844  0.1307
28201W        W59417   2.895  13.235   1.750  0.0645 -0.1342 -0.2012
28202W        W59418  24.448   3.350   9.634  0.0165 -0.0154  0.1437
28203W        W59419  13.645   0.712   8.274 -0.1787  0.0921  0.0753
28204W        W59420  21.524   8.118   1.974 -0.2244  0.1386 -0.1279
28205W        W59421   6.356  18.251  10.055 -0.0109 -0.0246 -0.1026
28206W        W59422  20.448  25.323   0.530  0.0102  0.4445  0.1037
28207W        W59423  23.791  25.215   1.721 -0.0383 -0.0411 -0.5040
28208W        W59424  24.089  18.898   0.887  0.2226 -0.2124  0.0350
28209W        W59425  18.756  10.098   2.327 -0.0280  0.4119  0.2561
28210W        W59426  12.028  17.704   9.638 -0.0032 -0.0591  0.0231
28211W        W59427   3.692  11.943   0.660  0.0308 -0.1791  0.3117
28212W        W59428  22.600   0.096   3.067  0.1220 -0.1225 -0.1918
28213W        W59429   8.408   2.451   9.082 -0.0183 -0.1956 -0.0691
28214W        W59430  12.049   5.892   2.306 -0.2053  0.1369  0.3494
28215W        W59431  14.722   6.469   1.583  0.0139  0.2182  0.1614
28216W        W59432   0.742   2.135   8.288 -0.0196 -0.0716  0.0889
28217W        W59433  18.317  19.462   2.002 -0.0212  0.2749  0.1681
28218W        W59434  20.442   2.838   7.290  0.0463  0.3707  0.0485
28219W        W59435   3.196  10.298   9.701 -0.2761  0.0622 -0.1142
28220W        W59436  16.572  26.698   3.504 -0.0414 -0.2612  0.1844
28221W        W59437  25.630   4.930   2.568  0.0120 -0.2310  0.1903
28222W        W59438  18.070   2.905   1.456  0.1363 -0.3813 -0.0386
28223W        W59439   0.928   1.175   2.862  0.0449 -0.3054  0.0503
28224W        W59440  19.473   3.492   0.988 -0.0334 -0.4318 -0.1012
28225W        W59441  15.770  25.395   0.975  0.0808 -0.0454  0.1612
28226W        W59442  25.367   2.192   1.283  0.2741  0.0412  0.2293
28227W        W59443  14.674  14.211   0.218  0.0763 -0.0943  0.2036
28228W        W59444  11.797  22.825   1.429  0.4394 -0.0083 -0.1670
28229W        W59445   2.502  21.853   8.832  0.2009  0.0891 -0.0343
28230W        W59446   6.275   0.937   8.333  0.3732 -0.1315  0.1313
28231W        W59447  17.760  13.464  10.094  0.7139 -0.2313  0.0452
28232W        W59448   3.155   9.029   9.928 -0.1060 -0.2417  0.2481
28233W        W59449   3.809  10.081   1.448  0.0719  0.2110  0.0391
28234W        W59450  24.566  11.379   8.214 -0.4083  0.1926 -0.0135
28235W        W59451   0.282  23.695   9.533  0.2188  0.2382 -0.0804
28236W        W59452   0.093   2.712   8.995 -0.4024  0.1276 -0.0759
28237W        W59453  22.412   9.433   9.143 -0.1095  0.0832  0.3213
28238W        W59454  26.675  22.754   1.268 -0.3499  0.1248 -0.2186
28239W        W59455  23.244  23.729   8.688 -0.3036 -0.1529  0.0901
28240W        W59456   9.453   1.690  10.192  0.0316 -0.0267  0.0635
28241W        W59457   4.181  17.625   3.221 -0.0832 -0.1450  0.2561
28242W        W59458  14.930  17.810   3.054 -0.0619 -0.0404  0.2909
28243W        W59459  11.424   5.706  10.232 -0.4978 -0.1512  0.0351
28244W        W59460  25.132  26.073   2.109  0.2920  0.0305  0.0637
28245W        W59461  19.747   6.527   2.246 -0.2487 -0.0688 -0.1467
28246W        W59462  12.719  26.552   3.497  0.3460 -0.1734 -0.4183
28247W        W59463  21.478  20.703  10.043  0.4454 -0.1870 -0.0713
28248W        W59464  17.279  13.304  10.027 -0.0264  0.3711  0.0900
28249W        W59465  12.077  26.788   2.332  0.2079 -0.2018  0.0001
28250W        W59466   5.694   9.952   2.936  0.5973 -0.1385  0.0482
28251W        W59467   7.408  21.209   8.840  0.2948  0.0557 -0.0171
28252W        W59468   2.743  21.231   0.437 -0.2693 -0.0998 -0.2389
28253W        W59469  23.550  14.895   1.456  0.1920 -0.2932 -0.2196
28254W        W59470   3.183  15.627   2.177  0.1995 -0.1462 -0.3148
28255W        W59471  19.500   5.473   7.083  0.0581  0.2266  0.0415
28256W        W59472  14.149  24.302   0.869 -0.3087  0.1190 -0.4554
28257W        W59473   4.942  19.640   8.685  0.0462 -0.0810  0.0722
28258W        W59474   1.814   4.876   9.458 -0.0053  0.1286 -0.1432
28259W        W59475   3.819  17.337   1.619  0.3057  0.1487  0.2769
28260W        W59476  19.532  13.265   9.888 -0.0418 -0.1295 -0.2861
28261W        W59477   6.714  16.728   7.524  0.3649 -0.0685 -0.0539
28262W        W59478   4.387  23.157   3.869 -0.3165  0.2047 -0.2134
28263W        W59479  25.424  20.651   9.124 -0.2574 -0.2579 -0.0011
28264W        W59480   8.613  24.132   8.571  0.2121 -0.1586  0.2005
28265W        W59481  13.082  12.913   7.498 -0.0216 -0.2713  0.1109
28266W        W59482  20.953   6.906   3.037  0.0389 -0.1678  0.2337
28267W        W59483  18.448  22.052   8.892  0.1517 -0.0512 -0.4062
28268W        W59484  14.091  13.097  10.357  0.3434  0.1614 -0.1273
28269W        W59485  17.421  18.133   1.751 -0.1185 -0.0833 -0.3348
28270W        W59486  19.139  17.664   9.688 -0.0796 -0.2808 -0.1589
28271W        W59487  20.368   9.651   1.728 -0.2259  0.0196  0.3751
28272W        W59488  14.701  15.088   9.759  0.0455 -0.1029  0.0436
28273W        W59489   4.072  14.192   3.095  0.4134 -0.1338 -0.0427
28274W        W59490  10.241  25.140   9.898  0.0132  0.0771  0.2049
28275W        W59491  12.445   1.809   9.134 -0.1439 -0.1356 -0.4471
28276W        W59492  20.446   6.333   1.610  0.2345  0.1755 -0.2231
28277W        W59493  14.459   4.187   9.495 -0.1331  0.3981  0.0494
28278W        W59494   9.415   0.500   2.237  0.1255 -0.2002  0.3364
28279W        W59495  19.294   9.103   1.718  0.1393  0.1788  0.1068
28280W        W59496  12.785  13.438   3.163 -0.0690 -0.0038  0.0924
28281W        W59497   2.368   6.699   9.920 -0.0682 -0.1751  0.3653
28282W        W59498  20.114  21.430   8.211  0.2325 -0.0747  0.0631
28283W        W59499   3.897  23.506   7.707  0.5739  0.0896 -0.0874
28284W        W59500  22.124  12.809   8.930 -0.2442  0.1669 -0.0491
28285W        W59501   8.779   3.546   8.407 -0.0449  0.0465 -0.1500
28286W        W59502  17.643  23.513   8.652 -0.4718 -0.0145 -0.0411
28287W        W59503   2.215   0.447   1.643  0.1250 -0.1738  0.1191
28288W        W59504  26.967  18.436   9.155  0.0529 -0.1147  0.0707
28289W        W59505  13.313  13.354   7.633 -0.1817 -0.5407 -0.0381
28290W        W59506   8.577   1.951  10.280 -0.1115  0.2482  0.0095
28291W        W59507  16.319  16.389   1.770  0.0901 -0.2975 -0.2120
28292W        W59508   6.108  13.728   9.541  0.0688  0.0297 -0.1378
28293W        W59509   1.592  18.897   7.921 -0.1233  0.1514  0.0104
28294W        W59510   0.445   7.233   1.439  0.1982  0.2922 -0.1030
28295W        W59511   5.171   7.162   1.423  0.2819 -0.0274 -0.1674
28296W        W59512  12.515   6.484   0.959  0.2961  0.0159  0.4317
28297W        W59513  22.274  15.916   9.199 -0.1698 -0.1597  0.1331
28298W        W59514  14.273  25.019  10.489  0.1782  0.1089 -0.3522
28299W        W59515   9.926  13.688   1.057  0.1273  0.0726  0.0493
28300W        W59516  25.184   0.042   9.933 -0.2375  0.2250  0.1324
28301W        W59517  12.721   5.767   1.278 -0.0807 -0.2217 -0.1921
28302W        W59518   6.582  27.016   1.006 -0.3360  0.0386 -0.1034
28303W        W59519   1.196   3.208   2.383 -0.1316  0.1657 -0.1614
28304W        W59520  24.917  11.298  10.489  0.1728  0.1255 -0.2380
28305W        W59521  24.783  12.114   9.862 -0.0361 -0.2713 -0.1825
28306W        W59522  11.192  12.604   0.962 -0.3240  0.0276 -0.0143
28307W        W59523   4.946   1.746   9.232 -0.3418 -0.1820 -0.1423
28308W        W59524   1.593  23.735   0.113 -0.2124  0.0789 -0.0036
28309W        W59525   0.477   0.408   1.176 -0.0683  0.0286  0.1499
28310W        W59526  20.533  12.033   0.673 -0.3363 -0.0208 -0.1311
28311W        W59527  26.701  17.219  10.099 -0.1135 -0.0310 -0.0822
28312W        W59528  22.379   3.556   1.873  0.3476  0.1711 -0.3078
28313W        W59529  22.692   4.648   0.431 -0.1066  0.0811  0.2501
28314W        W59530  16.106  27.066   2.944  0.0635  0.0161 -0.1124
28315W        W59531  10.081  27.509   1.186  0.2583  0.2181  0.1386
28316W        W59532   1.575  26.473   3.759  0.1399  0.2765  0.1803
28317W        W59533  26.257  15.422   1.402  0.1535  0.2720 -0.2675
28318W        W59534  21.040   9.137   6.885  0.2434  0.2150 -0.0019
28319W        W59535   9.139   4.963   9.412  0.0738 -0.2292 -0.0297
28320W        W59536   8.349  24.679   1.603 -0.1461  0.1561  0.0165
28321W        W59537   4.167   3.865   3.065 -0.1597  0.0780 -0.1014
28322W        W59538  24.782  24.234   7.017 -0.1498 -0.2586  0.2000
28323W        W59539   7.382  24.630   3.354 -0.1141 -0.2636  0.0816
28324W        W59540  25.021  26.664   2.520  0.0522 -0.3238  0.2386
28325W        W59541  16.060  11.359   8.298 -0.3854 -0.4810  0.0844
28326W        W59542  23.152  19.834   8.157  0.0566 -0.0378 -0.0030
28327W        W59543  26.038  25.071   1.829 -0.0491 -0.1234  0.1171
28328W        W59544  22.130  27.475   7.951 -0.0256 -0.0154  0.0721
28329W        W59545  14.351  20.360  10.070  0.1915 -0.1110 -0.2560
28330W        W59546  10.312   7.502  10.347  0.1323 -0.2654  0.0688
28331W        W59547  21.095  16.919   6.667  0.1415 -0.1148 -0.0595
28332W        W59548  21.476  21.088   8.751  0.0015 -0.3845 -0.0388
28333W        W59549   2.841  12.052   9.457  0.0234 -0.0674 -0.0907
28334W        W59550  20.434  26.843   3.289 -0.1604  0.2393  0.1451
28335W        W59551  21.604  22.574   9.100  0.2693  0.0543  0.1072
28336W        W59552   4.689   0.227   9.699 -0.0760 -0.0697  0.1400
28337W        W59553  19.165  26.476   9.256 -0.1629 -0.2356  0.2150
28338W        W59554   1.541  19.148   3.932 -0.0761  0.0708  0.2739
28339W        W59555  12.042   9.139   8.336 -0.0895  0.2357 -0.1776
28340W        W59556  19.525   8.861   0.629 -0.1157 -0.1618 -0.0953
28341W        W59557  10.453  21.929   0.708 -0.1595  0.0128 -0.0153
28342W        W59558   3.697  17.239   0.959 -0.0620 -0.0237  0.0652
28343W        W59559  19.267   6.648   2.236 -0.0071 -0.0716  0.4025
28344W        W59560  27.517  24.107   9.635  0.0674 -0.1427 -0.0798
28345W        W59561   5.197   5.595   8.335  0.1494 -0.0364 -0.0459
28346W        W59562  13.375  24.938  10.067  0.2006 -0.1663 -0.0838
28347W        W59563  14.256  17.572   8.660  0.1219  0.1179 -0.1948
28348W        W59564   7.387  22.088   8.586  0.1963 -0.0805  0.2455
28349W        W59565   2.470   4.523  10.425  0.0014  0.3632  0.1722
28350W        W59566  11.494  14.937   1.482 -0.2217 -0.0529  0.1550
28351W        W59567  16.262  21.805   0.263  0.0246  0.0667 -0.1394
28352W        W59568   5.254   3.365   2.082  0.0305 -0.1773 -0.2801
28353W        W59569  14.977  23.713   2.690 -0.3966  0.0322 -0.1537
28354W        W59570  25.485   8.297   1.010  0.4054  0.0263 -0.0706
28355W        W59571   5.292  25.566   1.757  0.1134 -0.1878 -0.0735
28356W        W59572   5.136  24.074   2.663  0.1689  0.1618  0.0991
28357W        W59573   6.199  16.550   7.515  0.0495 -0.0634  0.0274
28358W        W59574  10.807  13.631   1.681  0.1533 -0.0937  0.0028
28359W        W59575   7.075  26.001   0.607 -0.2451  0.1428  0.4157
28360W        W59576  13.929  26.181   9.925  0.0796  0.0093  0.2366
28361W        W59577  23.611  12.675   0.031 -0.0771 -0.1480 -0.2028
28362W        W59578  15.766  22.197   2.169  0.2081 -0.1254 -0.2621
28363W        W59579   0.847   7.051   1.767 -0.2778 -0.4233 -0.0001
28364W        W59580  15.202   6.586  10.037  0.0156 -0.1204 -0.0795
28365W        W59581  19.756  13.178   0.478  0.3410  0.2048  0.0045
28366W        W59582  19.358  26.304   0.512 -0.0027  0.0744  0.0858
28367W        W59583   5.305  20.156   9.441  0.0925  0.2686 -0.3952
28368W        W59584  19.984  20.728   3.092 -0.0052  0.1869 -0.0197
28369W        W59585  17.174   0.098  10.207 -0.0629 -0.0394  0.1638
28370W        W59586  15.082   7.390   9.066 -0.4005 -0.2231  0.1903
28371W        W59587   0.491  12.876   8.670 -0.2618 -0.0011 -0.1145
28372W        W59588   6.454  18.575   2.254 -0.2329  0.0503 -0.1756
28373W        W59589   1.805  10.959   8.360 -0.1895 -0.1354  0.2455
28374W        W59590  16.262   1.350   7.936 -0.0455 -0.0630  0.2822
28375W        W59591  22.223  13.170   2.411 -0.0074  0.0670  0.3306
28376W        W59592   5.379  19.088   7.939 -0.1106  0.1708 -0.2288
28377W        W59593  12.877   2.373   2.602  0.2291  0.1563  0.1279
28378W        W59594  16.310   2.958  10.007 -0.1515 -0.3290 -0.0781
28379W        W59595   8.020   1.746   1.772 -0.0547  0.2203 -0.0910
28380W        W59596   6.586   6.902   2.878 -0.1343  0.0873  0.1229
28381W        W59597   9.191  15.939   7.614  0.1561 -0.2997  0.1248
28382W        W59598   0.686  14.464   3.074  0.2062  0.4099  0.1494
28383W        W59599  13.632  11.546   8.952 -0.1830  0.5858  0.2806
28384W        W59600   4.562  14.691   7.535 -0.0286  0.1348 -0.0602
28385W        W59601   1.625   5.486   8.981  0.0215  0.2219  0.4650
28386W        W59602  22.639   5.050   1.966 -0.4676  0.1408  0.1127
28387W        W59603   7.901  16.308   8.752 -0.1230  0.2284 -0.1346
28388W        W59604  19.271  12.268   8.324 -0.4472  0.0379  0.0096
28389W        W59605  26.854  13.031   8.441  0.2198  0.0230 -0.3023
28390W        W59606  26.782   1.739   9.252 -0.1648 -0.3264  0.4181
28391W        W59607  22.572   9.842   8.118 -0.1611  0.0473 -0.1173
28392W        W59608  23.820  26.137   1.887 -0.0637  0.2298 -0.2144
28393W        W59609  25.442   0.231   8.701 -0.1012  0.0502 -0.1620
28394W        W59610   9.798  13.945   9.749  0.2870  0.0299 -0.2842
28395W        W59611  11.823  19.449   9.731  0.3069 -0.2170  0.0977
28396W        W59612  14.244   6.645  10.451 -0.0443 -0.2500  0.1130
28397W        W59613  21.163   0.039   9.855  0.1256  0.0957 -0.0651
28398W        W59614  25.254  10.634   9.559  0.1583  0.2780 -0.0924
28399W        W59615  11.317  15.216   0.032  0.3186 -0.2251  0.0549
28400W        W59616  15.649   8.776   0.383  0.1228 -0.0384  0.0718
28401W        W59617  26.818  14.693   2.882  0.0438  0.2537  0.2130
28402W        W59618   0.823  13.413   7.247  0.0901 -0.0148  0.0839
28403W        W59619  15.142  12.765   0.614 -0.1885 -0.1375 -0.0036
28404W        W59620  27.041  20.811   9.661 -0.1059 -0.2163 -0.0189
28405W        W59621  25.647  14.105   2.122 -0.0630  0.0774  0.0832
28406W        W59622  11.096  24.798   1.109 -0.1424  0.2575 -0.0118
28407W        W59623  26.904  19.411   9.074 -0.4699 -0.0448  0.4203
28408W        W59624   6.323  15.240   8.577 -0.0173  0.2994 -0.0699
28409W        W59625  11.590  26.138  10.535 -0.1508  0.1931  0.3661
28410W        W59626  24.883  19.226   0.315 -0.1251 -0.0608  0.3153
28411W        W59627   5.316  10.075   8.305 -0.0210 -0.0984  0.1521
28412W        W59628   4.108  19.600   0.142 -0.1846  0.2145  0.3325
28413W        W59629   4.272   7.101   1.774 -0.0649 -0.0773  0.0881
28414W        W59630   0.245  25.016   1.523  0.1013 -0.2680  0.0116
28415W        W59631  14.084   3.440   1.208  0.1305 -0.1172  0.3798
28416W        W59632  13.953  24.523   2.905 -0.0290 -0.1099 -0.1681
28417W        W59633  12.157   9.335   2.821 -0.2107 -0.2394 -0.0060
28418W        W59634   0.861  19.052   3.046  0.2337 -0.1764  0.2234
28419W        W59635  23.640  16.370   8.352  0.2746  0.2656  0.1392
28420W        W59636  10.550  25.081   1.682 -0.1287 -0.3891 -0.1572
28421W        W59637   3.506  22.469   9.351 -0.3784  0.2699  0.0998
28422W        W59638  25.236  17.822   7.869 -0.0845 -0.3209  0.1485
28423W        W59639  20.760  20.176   1.214 -0.0940 -0.0203 -0.0275
28424W        W59640   7.542  11.127   9.137 -0.4291  0.1847  0.0845
28425W        W59641  16.144  13.076   8.879  0.0974 -0.0000 -0.0560
28426W        W59642  20.595  25.923   2.223  0.3699 -0.0268 -0.0598
28427W        W59643   3.764   8.705   1.320 -0.1787  0.0193  0.2649
28428W        W59644  17.214   4.383   7.014  0.0920 -0.0754 -0.1803
28429W        W59645   3.164   3.038   3.638 -0.1849  0.3094 -0.1211
28430W        W59646  27.586  19.545   2.936 -0.4098 -0.2733  0.3725
28431W        W59647   3.660  26.740  10.352 -0.0096  0.1201  0.1548
28432W        W59648  12.040  24.957  10.358 -0.0163 -0.2010  0.0317
28433W        W59649   9.167  25.759   9.479 -0.1357  0.1548 -0.1717
28434W        W59650   6.095   7.537   7.718 -0.0735  0.0946 -0.2166
28435W        W59651   8.602   1.250   9.745 -0.0538  0.0226  0.1887
28436W        W59652  22.128  19.232   8.000 -0.4058  0.2355 -0.3762
28437W        W59653   3.306  19.208   3.088  0.0125  0.1533  0.4848
28438W        W59654  25.193  16.442   1.919 -0.2518 -0.3146 -0.0026
28439W        W59655  20.031   8.310   2.727 -0.0349 -0.1288  0.1738
28440W        W59656  21.038   5.819  10.312  0.1610 -0.0711 -0.0009
28441W        W59657  27.458   8.753   3.520  0.0286  0.1071 -0.2288
28442W        W59658   2.305   1.220   1.662 -0.3797 -0.0729 -0.4394
28443W        W59659  10.852  24.832   8.327  0.2649 -0.1586 -0.3743
28444W        W59660  10.274   7.807   9.051 -0.1687  0.2221 -0.1162
28445W        W59661   8.350   1.323  10.256 -0.1573  0.0798  0.0225
28446W        W59662  21.005   2.558   2.466 -0.3025 -0.0975  0.0506
28447W        W59663  25.492   4.803   1.737  0.3676  0.0860 -0.1891
28448W        W59664   2.784  15.382   2.728  0.1718  0.1349 -0.1262
28449W        W59665  26.991  11.912   0.087 -0.2590 -0.0250  0.0146
28450W        W59666   1.776  23.448   9.183 -0.0818 -0.0792  0.0427
28451W        W59667  27.168   0.126   1.349 -0.0947  0.1052 -0.2634
28452W        W59668  11.790   7.462   9.190 -0.1072 -0.0047 -0.0824
28453W        W59669   3.377  12.223   0.925  0.0577 -0.0661  0.1337
28454W        W59670   9.358   0.489   7.864  0.2219  0.2227 -0.2019
28455W        W59671  16.341  23.914   0.229  0.0435  0.0856 -0.4137
28456W        W59672  26.478  14.073   0.977 -0.1396  0.0257 -0.0038
28457W        W59673   8.219  10.868   1.822  0.1920 -0.0592  0.2833
28458W        W59674  19.426   7.867  10.404 -0.1511 -0.1807  0.2701
28459W        W59675  14.529  10.022   2.589 -0.1169 -0.1693  0.2921
28460W        W59676  15.119  16.719   3.790  0.0945  0.3376  0.2560
28461W        W59677  25.267  27.564   1.932 -0.4475 -0.0246  0.1183
28462W        W59678  16.928  18.286   0.566  0.0381 -0.0281  0.0191
28463W        W59679  23.246  10.336   1.708  0.2245 -0.2338 -0.1414
28464W        W59680  11.109  10.460   0.802 -0.0623  0.3326  0.1911
28465W        W59681  22.871   7.699   1.901 -0.1780  0.1212  0.1528
28466W        W59682  14.835  18.695   2.519  0.0450  0.0282 -0.0206
28467W        W59683   7.394  22.726   2.770 -0.1645  0.0279  0.2495
28468W        W59684  14.195  16.756   2.723  0.4095  0.0378  0.0854
28469W        W59685  21.945   4.720   8.271 -0.1826 -0.2584 -0.0795
28470W        W59686  16.386   6.968   9.510 -0.0877 -0.1318  0.1555
28471W        W59687  19.441  20.826   2.180 -0.0453 -0.1109 -0.2779
28472W        W59688  16.770   4.266   2.132  0.0131  0.0788 -0.1303
28473W        W59689  13.975  14.316   2.740  0.0164  0.1112  0.2187
28474W        W59690  23.899  12.341   9.293  0.1225  0.0052 -0.1658
28475W        W59691  13.618  20.186   3.568  0.1296  0.0815 -0.1480
28476W        W59692   3.220  21.906  10.459 -0.0881 -0.0078 -0.0980
28477W        W59693  21.837  21.368   7.782 -0.2378 -0.2150  0.0246
28478W        W59694  19.490  26.126   9.087  0.2298 -0.2603  0.0975
28479W        W59695   3.212   8.481   2.129 -0.0630 -0.0076 -0.0096
28480W        W59696  21.347  14.022   8.029  0.1430  0.1236 -0.2359
28481W        W59697  27.153  25.464   8.415 -0.2074 -0.0361  0.1893
28482W        W59698  18.493   8.254   7.724  0.0204  0.0143 -0.2238
28483W        W59699  18.519  17.833   2.615 -0.0980 -0.0160 -0.1867
28484W        W59700  19.579  10.660   1.413 -0.3206  0.4182  0.1805
28485W        W59701  21.840  23.260   1.465 -0.0283  0.0879 -0.0849
28486W        W59702   6.497  12.067   8.357  0.0859  0.0961 -0.0326
28487W        W59703   9.406   8.284   8.952  0.0331 -0.2139 -0.2652
28488W        W59704   4.905   9.807   2.205 -0.2574  0.0237 -0.2188
28489W        W59705  21.916  12.388   3.213  0.2688 -0.0006  0.2376
28490W        W59706  25.739   8.933   2.190 -0.0115 -0.1239 -0.1467
28491W        W59707  10.961  11.875   1.347 -0.2383  0.1008 -0.0363
28492W        W59708   9.740  23.364   3.533 -0.0360  0.1823 -0.0858
28493W        W59709  15.516  10.588   7.504 -0.0448 -0.2454  0.0046
28494W        W59710  21.573  20.660   8.032  0.1422  0.1319  0.0008
28495W        W59711   1.435  14.453   9.975  0.0191  0.2760  0.3465
28496W        W59712   5.855  10.851   0.580  0.0268 -0.3362  0.0419
28497W        W59713  20.846   8.265   2.453  0.1181  0.2048  0.1682
28498W        W59714  11.263   4.071   0.653 -0.0961  0.2314 -0.0193
28499W        W59715  12.644  25.941   2.834 -0.0534  0.1635  0.1486
28500W        W59716   9.516  25.174   8.567  0.0010  0.2474 -0.3784
28501W        W59717   8.227   4.777   9.569  0.0422  0.0912 -0.0859
28502W        W59718   6.244  24.541   0.696 -0.1147 -0.1625 -0.1613
28503W        W59719  11.185  19.456   1.499  0.0330 -0.3827 -0.1982
28504W        W59720   5.803  26.648   0.014  0.0367 -0.1255 -0.2160
28505W        W59721  20.701   4.420   1.949  0.1029  0.0524  0.1434
28506W        W59722  25.002   0.618   0.906 -0.0579  0.5157  0.2765
28507W        W59723   1.513  13.543   2.258 -0.1350  0.0734  0.1274
28508W        W59724  15.578  15.365   8.471 -0.2971  0.1083  0.0650
28509W        W59725  16.363  19.373   8.796  0.4755 -0.1673 -0.2811
28510W        W59726   6.242   4.643   9.954 -0.0043  0.3092 -0.1474
28511W        W59727   2.237   7.776   0.515  0.1592  0.0575 -0.0063
28512W        W59728  16.483   2.946   9.496 -0.3246  0.2068  0.1304
28513W        W59729   3.819  14.525   8.275  0.3022  0.0960 -0.1525
28514W        W59730  23.553  12.296   8.944 -0.1008  0.0395  0.3551
28515W        W59731   5.923   7.001   8.971  0.1437 -0.1500  0.0239
28516W        W59732  21.443  23.046  10.360 -0.0598  0.3744 -0.2444
28517W        W59733   2.960  25.492   2.144 -0.2613  0.0420 -0.1513
28518W        W59734  16.053  11.246   9.704  0.2117 -0.1153  0.1502
28519W        W59735  19.213  24.272   2.229  0.1041  0.1027 -0.2599
28520W        W59736  23.656  18.283   1.672  0.1001 -0.4679  0.0478
28521W        W59737  13.941   2.324   9.423  0.0319 -0.1523  0.0728
28522W        W59738  25.405  16.982   1.047 -0.1972  0.1249  0.1152
28523W        W59739  12.365  23.017   8.699 -0.0178 -0.2659  0.0203
28524W        W59740   2.219  16.495   3.722  0.0193  0.1888 -0.3322
28525W        W59741  18.739  11.694   8.851  0.0007  0.3662  0.2486
28526W        W59742  15.491  17.084   2.599 -0.1467  0.2520  0.0696
28527W        W59743  18.410   3.537   1.164 -0.0350 -0.1183 -0.0969
28528W        W59744   7.280  16.127   1.309  0.1182 -0.2829 -0.1446
28529W        W59745  14.253   3.822  10.051  0.4005 -0.0381  0.3097
28530W        W59746  15.580  13.140   9.978 -0.3737  0.0619 -0.0437
28531W        W59747   3.772   2.559   0.854 -0.0121  0.0814 -0.2207
28532W        W59748  18.872  13.297   3.082  0.2662 -0.0493 -0.1367
28533W        W59749  13.428   5.073  10.347  0.0454  0.0655  0.2943
28534W        W59750  26.760   4.060   2.481  0.0891  0.0765 -0.0381
28535W        W59751  19.964  27.414   1.280  0.1591 -0.4854  0.0777
28536W        W59752  20.839   1.213   0.440  0.0632  0.1992  0.0444
28537W        W59753  20.517  10.790   2.316 -0.2328  0.1206  0.0834
28538W        W59754  10.529  23.051   9.149 -0.1541  0.1162 -0.0951
28539W        W59755  22.615   1.734   9.917  0.3341 -0.2053  0.1483
28540W        W59756   9.035   9.604   2.051  0.1399  0.1197 -0.3395
28541W        W59757  16.711  14.061   9.094  0.0087 -0.0776  0.0347
28542W        W59758   0.898  10.816   0.275 -0.0761  0.0381 -0.0332
28543W        W59759  20.230  10.287   0.805 -0.0057  0.0893  0.0279
28544W        W59760  12.975  17.699  10.400  0.0183 -0.0595  0.1924
28545W        W59761  19.492  13.214   9.282  0.0892 -0.0279  0.0288
28546W        W59762  20.211  19.215  10.094  0.0232  0.1049 -0.1295
28547W        W59763  27.587   8.250   1.932 -0.1791  0.0756  0.1663
28548W        W59764  20.849  13.201   2.223  0.3169  0.0861  0.1555
28549W        W59765   5.544   3.877   9.604 -0.1375 -0.0861 -0.0696
28550W        W59766   5.699   2.326   2.119  0.1243  0.0333 -0.1614
28551W        W59767  26.383  16.845   3.249  0.2126  0.0333 -0.0149
28552W        W59768   9.878  15.915   8.613 -0.1157 -0.0856 -0.1806
28553W        W59769   8.532  23.424   9.393 -0.0421 -0.1046 -0.2004
28554W        W59770   9.285  18.009   1.403  0.2257  0.2149 -0.2847
28555W        W59771   8.869   2.402   1.159 -0.1303 -0.1438 -0.1681
28556W        W59772  17.828  11.180   1.515  0.0786  0.2760  0.4774
28557W        W59773  17.289   9.219   1.839 -0.0319  0.2684 -0.1752
28558W        W59774   1.118   8.256   2.504 -0.0507 -0.2029 -0.3125
28559W        W59775  23.649   7.895  10.416 -0.0839 -0.1198  0.2158
28560W        W59776   1.349   0.042   9.453  0.2309  0.3165 -0.0902
28561W        W59777   4.846  16.149   2.493  0.3662  0.0338 -0.2477
28562W        W59778  22.814   2.227   2.093  0.1276  0.0128 -0.0030
28563W        W59779  22.147  16.398   1.312 -0.1579  0.0822  0.0506
28564W        W59780  14.444   7.761  10.129  0.0736  0.0750 -0.1589
28565W        W59781  19.921   0.275   1.436  0.1613 -0.1196  0.2891
28566W        W59782  27.345   2.364   1.593 -0.1642  0.0638 -0.2303
28567W        W59783  17.776  17.653   3.503  0.3134  0.0752 -0.0747
28568W        W59784  20.000  17.222  10.260  0.3105 -0.0307  0.2758
28569W        W59785  22.632   8.576   7.993  0.1541  0.2546  0.2359
28570W        W59786   4.007  18.887   2.403 -0.0502  0.1341 -0.0674
28571W        W59787  17.763   3.154   3.447  0.3309 -0.0777 -0.1701
28572W        W59788  15.056  16.891   8.469  0.0982 -0.1653  0.0287
28573W        W59789  12.247  23.425   8.994  0.0662  0.1017  0.2306
28574W        W59790  23.827   7.768   9.499  0.2233  0.0422  0.0659
28575W        W59791  25.920  10.704   8.853  0.1044 -0.1629 -0.1325
28576W        W59792  11.780   3.946   9.478  0.1786 -0.1658  0.1475
28577W        W59793  26.121  10.681   1.215  0.0746 -0.1707 -0.1372
28578W        W59794  22.337  24.546   8.772  0.1381 -0.1330 -0.0188
28579W        W59795  26.569   7.419   2.702  0.2500 -0.0648 -0.0175
28580W        W59796   9.709  27.260   7.951 -0.2583  0.1438 -0.2162
28581W        W59797  21.077  17.150   9.526  0.1458  0.3342 -0.0114
28582W        W59798  15.606   8.669   9.604  0.1215 -0.1181 -0.1117
28583W        W59799   0.359  20.522   9.436 -0.2753  0.0037 -0.0919
28584W        W59800  13.415  24.609   9.599 -0.0289  0.0938 -0.2804
28585W        W59801  20.375  18.166   6.821 -0.2356  0.0359  0.1064
28586W        W59802  13.037  10.881   8.542 -0.1414  0.3118 -0.0742
28587W        W59803   7.076  21.294   1.668 -0.1477  0.2641  0.0501
28588W        W59804  26.133   8.976   2.894  0.1377  0.2818  0.3175
28589W        W59805   3.700   5.584   3.349  0.1405 -0.0159  0.1281
28590W        W59806  12.666   2.077   0.848  0.1375  0.0675 -0.0771
28591W        W59807  17.994  17.855   1.179  0.2155 -0.1462  0.0573
28592W        W59808  12.783  21.520  10.006 -0.0943 -0.0534 -0.0712
28593W        W59809  20.624  24.129   1.517  0.0333  0.2489 -0.1823
28594W        W59810   9.254  17.759   0.453 -0.0645 -0.0854  0.1453
28595W        W59811   3.549  17.196   8.673 -0.0356  0.1718 -0.1079
28596W        W59812  12.441   3.805   1.272  0.1408 -0.1727  0.0898
28597W        W59813  21.570  26.185  10.053  0.3783  0.1898 -0.1903
28598W        W59814   9.560  20.741   1.118 -0.2665 -0.3437  0.1284
28599W        W59815  24.485  21.964   2.090  0.0166  0.0494 -0.2859
28600W        W59816  24.048  10.788   3.272 -0.3223  0.0720 -0.2569
28601W        W59817   3.654  20.153   9.202  0.1295 -0.1147  0.0785
28602W        W59818  25.795  19.417   3.146 -0.2219 -0.0538 -0.1518
28603W        W59819   5.418  13.098   1.527 -0.1091  0.1020  0.0194
28604W        W59820   2.448  11.778   0.983 -0.2659  0.1052  0.1019
28605W        W59821  16.697  27.290   8.484 -0.1393  0.3081 -0.6525
28606W        W59822   1.139   2.785   3.268 -0.0551  0.1714 -0.0405
28607W        W59823  11.147   5.980   7.709  0.0496  0.1572  0.2440
28608W        W59824   8.759   5.466   1.652  0.0032 -0.2911  0.2630
28609W        W59825   6.043  10.778   9.797  0.2327 -0.0093 -0.2863
28610W        W59826   5.903  25.154   2.320  0.1043 -0.2233 -0.2600
28611W        W59827   5.321  24.082   0.015 -0.1093 -0.0805 -0.1085
28612W        W59828  10.038   6.346   1.670 -0.1260 -0.0862 -0.1540
28613W        W59829   3.033  16.401   7.650 -0.2885  0.0709  0.0030
28614W        W59830  20.160  26.104   0.504  0.0435 -0.1766  0.0100
28615W        W59831   9.517   7.201   2.908 -0.0986 -0.2811 -0.0965
28616W        W59832  17.401   6.631   8.597  0.0958  0.0013 -0.1166
28617W        W59833  27.262  22.183   9.698  0.3022 -0.1019  0.0095
28618W        W59834   1.352  11.896   8.277  0.1168  0.4795 -0.1060
28619W        W59835  20.399  10.653   1.825 -0.2697 -0.1260  0.0678
28620W        W59836  25.368  20.111   0.895  0.4691 -0.1320 -0.0791
28621W        W59837  19.358   7.959   9.417 -0.0341 -0.2118  0.2119
28622W        W59838  12.887  10.770   9.472 -0.0708  0.0895 -0.2702
28623W        W59839   5.962  25.057   0.672  0.0651  0.0086 -0.2764
28624W        W59840   7.124   8.288   0.883  0.5003  0.0906  0.2704
28625W        W59841  10.820   1.715   0.308 -0.1279  0.2736 -0.2003
28626W        W59842  19.398  19.583   8.005 -0.0185  0.1204  0.0736
28627W        W59843  10.371   0.265   2.442 -0.2702  0.1250 -0.0643
28628W        W59844  16.982  26.747   3.140  0.1618  0.1010 -0.0515
28629W        W59845  18.332  16.915   8.641  0.2110  0.0508 -0.4318
28630W        W59846  10.153  16.001   8.088  0.1513 -0.1157  0.2558
28631W        W59847   4.048  21.315   8.661  0.0734 -0.2124 -0.1079
28632W        W59848  24.843   9.033   1.716  0.1384  0.1729 -0.4024
28633W        W59849   8.901   7.694   0.438 -0.2023  0.0854 -0.1479
28634W        W59850  24.118   4.283   8.904 -0.0224  0.5411 -0.0094
28635W        W59851  27.052   7.789   2.234 -0.3454 -0.2766  0.0740
28636W        W59852  26.691  21.575   1.911  0.0620 -0.4997  0.2137
28637W        W59853  12.040   3.410   2.408  0.1442 -0.2196 -0.0967
28638W        W59854   4.573   9.954   0.089 -0.4195  0.2511  0.2536
28639W        W59855  25.129  12.364   4.321  0.1984  0.2178 -0.2894
28640W        W59856  19.496  13.191   8.212 -0.1545 -0.2723  0.1525
28641W        W59857   2.603  13.039   0.972 -0.2452 -0.2386 -0.0996
28642W        W59858  13.526   5.585   1.882 -0.1572  0.0630  0.1602
28643W        W59859  16.657  25.216   1.877  0.0743 -0.0199  0.2623
28644W        W59860  22.962  24.487   1.776  0.1807 -0.2213  0.2233
28645W        W59861  11.724  16.150   9.771  0.5212  0.1583  0.0341
28646W        W59862  16.568  11.306   7.921  0.1880 -0.0535  0.1054
28647W        W59863   9.498  25.489   9.715 -0.0921 -0.2571 -0.0198
28648W        W59864  18.135  20.011   7.253 -0.0785 -0.2590 -0.4581
28649W        W59865  19.792   2.879   3.498  0.0462  0.0631  0.2415
28650W        W59866  27.584   5.246   0.920 -0.2040  0.1420 -0.1159
28651W        W59867   1.985  10.176   8.707  0.0185 -0.1841  0.0821
28652W        W59868   1.807  17.880   1.980  0.3680  0.0793  0.1409
28653W        W59869  10.481   6.991   3.064 -0.0692 -0.0875  0.0109
28654W        W59870   3.013   4.469   0.752 -0.1802  0.0535  0.0258
28655W        W59871  16.829  25.252   8.587 -0.1347  0.1325  0.4627
28656W        W59872   3.213   4.985   9.282  0.2158 -0.0487  0.0315
28657W        W59873   5.173  13.597   0.830  0.3810  0.0022 -0.0555
28658W        W59874  13.497   9.652   8.293 -0.2207  0.0911 -0.3824
28659W        W59875  12.374  26.248   7.944  0.0271  0.2802  0.4058
28660W        W59876   5.833  12.890   7.821 -0.3248 -0.1780 -0.0020
28661W        W59877  17.799  18.503   2.454  0.2681 -0.4655  0.0239
28662W        W59878  14.206  10.431   0.689  0.0078 -0.0018  0.0636
28663W        W59879  11.256  17.931   9.895  0.3109  0.1403 -0.0418
28664W        W59880  17.182  18.209   9.046 -0.1188  0.2145 -0.1673
28665W        W59881  20.738  19.803   2.370  0.1749 -0.1918  0.0591
28666W        W59882   1.304  22.613   9.577  0.2271 -0.2544 -0.0401
28667W        W59883  16.183  20.168   3.317  0.0323  0.0959  0.1638
28668W        W59884  13.433   4.772   8.536 -0.3646 -0.0469 -0.2308
28669W        W59885   4.130   3.242   0.274  0.1151 -0.0936  0.2804
28670W        W59886   9.907  15.032   2.037 -0.0748 -0.0721 -0.2526
28671W        W59887   8.960  19.237   2.577 -0.0398 -0.0792 -0.1900
28672W        W59888  24.879   1.998   0.518  0.0153  0.0168 -0.0729
28673W        W59889  11.313  22.793   2.685  0.1259  0.1236  0.2588
28674W        W59890  19.510   2.269   2.056 -0.0871  0.0812  0.1887
28675W        W59891  25.654  21.110   9.124 -0.2796 -0.1634 -0.0778
28676W        W59892   4.862  21.777  10.158 -0.2260 -0.1670 -0.0108
28677W        W59893   8.124  22.095   9.690  0.1621 -0.0567 -0.2608
28678W        W59894  18.394  20.718   0.653 -0.1215  0.0345 -0.2849
28679W        W59895  14.450  14.843  10.133  0.0539 -0.2138  0.0435
28680W        W59896  12.027  14.695   2.271 -0.0014 -0.3071 -0.3354
28681W        W59897   8.042   8.733   7.455  0.1671 -0.1278  0.0533
28682W        W59898   2.364   5.205   0.902 -0.3283  0.1128  0.1061
28683W        W59899  24.922  17.087   3.499 -0.2005 -0.0366  0.1203
28684W        W59900  23.285   4.178   9.700 -0.0209  0.0948 -0.1933
28685W        W59901   6.999  15.092   0.296  0.0641  0.3114 -0.2025
28686W        W59902   6.107   3.800   9.277  0.0306 -0.1137  0.1691
28687W        W59903   8.127   4.330   0.117 -0.1146  0.0185  0.2000
28688W        W59904  23.601   1.070   8.433  0.2400 -0.0096  0.2203
28689W        W59905  15.136  17.765   8.212 -0.3677  0.0382 -0.0817
28690W        W59906  22.888  11.656   3.639 -0.3056 -0.0328  0.0993
28691W        W59907  12.937  10.041   1.806 -0.0922  0.0778  0.2267
28692W        W59908  20.830   6.153   8.593 -0.0745  0.0543  0.1352
28693W        W59909  13.818  25.674   2.775 -0.0274  0.0697  0.1439
28694W        W59910   7.867  21.844   2.230 -0.0109  0.0064  0.2099
28695W        W59911  22.583  18.495   0.127  0.2690 -0.1525  0.0818
28696W        W59912  16.405  26.261   8.978 -0.1701 -0.3448 -0.2883
28697W        W59913   5.255   7.622   1.092  0.2371 -0.1817 -0.1052
28698W        W59914  17.768  16.343  10.337  0.2233 -0.0827 -0.0223
28699W        W59915  15.970  13.116   8.396  0.0979 -0.0358 -0.2690
28700W        W59916  13.087  13.091   9.131  0.2377  0.2073  0.1567
28701W        W59917   1.909  25.736   2.456 -0.0441  0.2013 -0.0235
28702W        W59918  19.470  23.443   1.016  0.0629 -0.3747  0.1029
28703W        W59919   5.518   1.415   2.452  0.0337  0.2643  0.0346
28704W        W59920  20.740  20.569   0.887 -0.2441 -0.2210  0.0130
28705W        W59921   4.992  13.165   7.432 -0.1631  0.2994  0.2309
28706W        W59922  27.136  16.991   0.882 -0.1297  0.4303 -0.0254
28707W        W59923  17.059  13.340   8.183  0.0885  0.2445  0.2994
28708W        W59924   0.409  12.010  10.402 -0.0023  0.3167  0.2091
28709W        W59925  24.297   7.096   3.876  0.0970  0.4274  0.1596
28710W        W59926  17.388  21.262   3.071 -0.2326 -0.0751  0.1024
28711W        W59927  21.578   4.138   9.643  0.1104  0.1694  0.1155
28712W        W59928   8.658   4.641   2.155  0.2171  0.0482  0.2055
28713W        W59929  27.169  15.627   2.489 -0.2812  0.1541 -0.0966
28714W        W59930  21.806  26.390   0.076  0.0092 -0.2957  0.0985
28715W        W59931  26.161  15.180  10.245 -0.1773  0.1017 -0.1365
28716W        W59932   4.526  27.445   9.929  0.2360 -0.0961  0.1132
28717W        W59933  17.208   8.614   9.471  0.0301  0.3049 -0.3853
28718W        W59934  15.539   2.334   0.194 -0.0270  0.0869  0.0205
28719W        W59935  10.382  11.615   0.210  0.0118 -0.0696 -0.2681
28720W        W59936  19.484  19.382   7.559 -0.0610  0.0403 -0.0139
28721W        W59937  21.009  10.023   8.158 -0.0829  0.0698 -0.2796
28722W        W59938   0.501  14.934  10.074  0.0441 -0.0004  0.1733
28723W        W59939   9.774  14.472   9.732 -0.2764 -0.2501 -0.3119
28724W        W59940   0.373   4.727   2.126 -0.3970 -0.0263  0.2622
28725W        W59941   7.678  17.229   3.251  0.3009 -0.1590  0.2555
28726W        W59942  23.355  19.929   1.444 -0.1314 -0.1461 -0.0449
28727W        W59943   3.524   6.021   2.241  0.2051 -0.4216  0.1535
28728W        W59944  20.964  22.592  10.494  0.2881  0.2740  0.2978
28729W        W59945   6.101  19.404   0.560 -0.3181 -0.1798 -0.5101
28730W        W59946  16.265  27.243   9.398  0.1351  0.0487 -0.0387
28731W        W59947  24.219   1.616   1.671 -0.1378  0.0098  0.0894
28732W        W59948   0.758  18.751   1.680  0.0292 -0.2509  0.2427
28733W        W59949   2.238  12.749   1.978 -0.1730 -0.3386  0.1279
28734W        W59950   1.864   6.137  10.072  0.1558 -0.0533  0.1192
28735W        W59951  12.786  19.060   0.263 -0.1728 -0.0752 -0.1693
28736W        W59952  17.926  26.986   8.477 -0.4252 -0.0143  0.3725
28737W        W59953  22.647  21.358   2.508  0.0656  0.0129 -0.1025
28738W        W59954  10.779   3.256   3.578  0.0179 -0.4181  0.0980
28739W        W59955   3.889  10.271   7.927  0.1592  0.2262 -0.0368
28740W        W59956   7.448  21.313   2.322  0.2388 -0.2122  0.1518
28741W        W59957  25.735  24.176   1.067  0.2401  0.0273 -0.2624
28742W        W59958   9.979  24.131   0.813  0.0360 -0.0201 -0.3539
28743W        W59959  23.596  25.462   2.967 -0.0508 -0.0923  0.4736
28744W        W59960   2.271   3.316   8.547  0.1170 -0.1762 -0.5269
28745W        W59961  10.256   1.835   7.727  0.3931  0.0098 -0.0649
28746W        W59962  15.170   2.068   2.982 -0.2704 -0.0873  0.2153
28747W        W59963  22.313   8.608   9.286 -0.2083 -0.0517  0.3094
28748W        W59964  18.140  22.746   7.538 -0.1828  0.1957 -0.4670
28749W        W59965   5.834   5.794   0.671 -0.1287  0.1566 -0.0266
28750W        W59966  12.464   4.401   7.565 -0.1003  0.0772 -0.3710
28751W        W59967  16.203  25.694  10.235  0.2904  0.0130  0.0464
28752W        W59968  20.847   3.340   8.543  0.0023 -0.1261  0.2509
28753W        W59969  23.443  14.562   9.908 -0.0076 -0.0763  0.1881
28754W        W59970  14.674  22.430   8.461 -0.0986 -0.0586  0.0727
28755W        W59971  22.065  11.717   0.842  0.0645  0.0539 -0.3658
28756W        W59972  21.248  22.648   9.548 -0.2485 -0.2109 -0.0803
28757W        W59973   0.786  23.900   3.671 -0.1467 -0.0475 -0.1341
28758W        W59974  17.303  24.077   0.815 -0.0972  0.0587 -0.0390
28759W        W59975   8.522  18.359   9.861 -0.0801 -0.0809 -0.0225
28760W        W59976  21.103   8.912   8.169 -0.3714  0.0709  0.1105
28761W        W59977  21.287   4.980   2.456  0.1121  0.0741 -0.1528
28762W        W59978  23.893   6.603   2.256  0.0289 -0.4337  0.0436
28763W        W59979  23.671   1.397   0.479 -0.1451  0.1805  0.0436
28764W        W59980  20.019  12.972   1.274  0.1263  0.1975 -0.0601
28765W        W59981  10.969  12.883   4.004  0.1343  0.0984  0.0962
28766W        W59982  13.742  22.463   2.714 -0.0670 -0.1100 -0.1056
28767W        W59983  22.393   3.435   7.439  0.0093 -0.1064  0.1580
28768W        W59984   6.256  21.094   8.397 -0.0477 -0.0617  0.0224
28769W        W59985  26.213   6.530   8.392  0.0251 -0.0998  0.0600
28770W        W59986  14.786  12.411   1.395  0.2318  0.0765 -0.2370
28771W        W59987  23.996   0.767   8.280  0.3083 -0.3805 -0.0424
28772W        W59988  11.151   5.700   8.488  0.1721 -0.1479 -0.0814
28773W        W59989   1.327  11.035   8.172 -0.1234 -0.0833 -0.1735
28774W        W59990   4.004  18.463   1.714  0.1745 -0.2519  0.2779
28775W        W59991  12.779  14.471  10.049  0.3509  0.0657 -0.0178
28776W        W59992   2.393  16.984   3.616 -0.3248  0.2531  0.1276
28777W        W59993  14.464  11.922   2.978  0.0156  0.1167 -0.0184
28778W        W59994  12.126  10.325   1.330 -0.0278 -0.2448 -0.0408
28779W        W59995   4.137  11.720   7.749  0.2028  0.0241  0.3668
28780W        W59996   1.956   5.157   0.630  0.0310 -0.0430 -0.1000
28781W        W59997  15.227   3.355   3.753 -0.0560  0.0410 -0.2225
28782W        W59998   9.160  22.325   1.626  0.3916  0.1538 -0.0166
28783W        W59999  23.638   3.847   3.736 -0.1095  0.0326 -0.1177
28784W        W60000  21.984  11.517   8.254 -0.0042 -0.0646  0.0531
28785W        W60001   0.470  23.662   8.691 -0.0606 -0.1169 -0.1282
28786W        W60002  10.935   4.752   1.657  0.0920  0.3849 -0.2220
28787W        W60003  21.988   4.190   1.183 -0.1807 -0.3122 -0.0078
28788W        W60004   2.561  27.522   2.840 -0.0814  0.2492 -0.1324
28789W        W60005  18.185  12.839   9.691 -0.1995  0.2973 -0.1890
28790W        W60006  22.619   3.075   8.096 -0.0664 -0.0497  0.2349
28791W        W60007  19.170  12.715   2.971 -0.0038  0.0831 -0.1090
28792W        W60008  23.862  18.004   0.235  0.1812  0.0836 -0.2797
28793W        W60009   2.239   0.186   3.524 -0.1313  0.1247 -0.0544
28794W        W60010  24.789  13.067   1.671 -0.2280 -0.0290 -0.3042
28795W        W60011   9.979   5.723   1.723 -0.2216 -0.1696 -0.2867
28796W        W60012   0.236   7.368   1.956 -0.4855 -0.3313 -0.0594
28797W        W60013  20.149  17.196   8.310  0.0103  0.2060  0.1237
28798W        W60014  21.608   8.683   1.822 -0.1993  0.2196  0.0254
28799W        W60015   7.743   2.224   9.922  0.0260  0.1612  0.0181
28800W        W60016   7.472  26.672   3.090 -0.1200  0.1583  0.0107
28801W        W60017  13.636  20.711   2.380 -0.4158 -0.1745  0.2951
28802W        W60018  21.082   3.647   0.527 -0.1732  0.0606 -0.1556
28803W        W60019  20.257  20.704   4.528 -0.2146  0.3031  0.0312
28804W        W60020   3.774   9.166   1.599 -0.1429 -0.0486  0.3035
28805W        W60021  22.554  25.530   3.806  0.2713 -0.0040  0.3708
28806W        W60022   6.004  20.126   7.595 -0.1089  0.2123  0.0323
28807W        W60023  22.524  17.215   0.875 -0.0336  0.2726 -0.1074
28808W        W60024  16.253  15.129   0.156 -0.1191 -0.1120  0.2010
28809W        W60025  20.805  27.320   9.686 -0.2190  0.2800  0.0388
28810W        W60026  14.888  22.996   0.427  0.0985 -0.0058 -0.0778
28811W        W60027  15.069   0.854   9.963  0.0973  0.1168  0.0467
28812W        W60028   8.902  23.025   9.974 -0.1388  0.0912  0.0468
28813W        W60029   7.137  12.875   7.991  0.0087 -0.0040 -0.0363
28814W        W60030  21.501   8.737   1.268  0.3062 -0.0593 -0.2499
28815W        W60031  21.816  25.636   0.260 -0.0476  0.0132  0.0924
28816W        W60032  16.070   6.574   1.022  0.1672  0.2437 -0.1517
28817W        W60033   0.889  17.903   0.611  0.1335 -0.2717  0.2220
28818W        W60034  22.365  11.689   7.861 -0.2143 -0.0432  0.1966
28819W        W60035  17.342  24.907   0.544  0.3793 -0.0208  0.1009
28820W        W60036  21.531  12.397   0.887  0.1870  0.0117  0.1061
28821W        W60037  14.437  19.082   9.451  0.3288 -0.0894 -0.0009
28822W        W60038  17.655   1.586   8.897  0.2052 -0.0647  0.0475
28823W        W60039  16.882   8.365   7.995 -0.0098 -0.2258 -0.0975
28824W        W60040  17.101   7.632   0.802 -0.1441 -0.0684 -0.0061
28825W        W60041   6.246  14.476   3.644 -0.3638  0.4873  0.1671
28826W        W60042  13.129   0.906   8.264  0.0394  0.3118  0.0404
28827W        W60043  17.639  22.747   2.974  0.3965 -0.2939  0.3526
28828W        W60044   9.237   2.896   0.366 -0.1341 -0.0609 -0.2316
28829W        W60045   1.767  27.163   1.896  0.2172  0.1751 -0.1276
28830W        W60046   9.663   1.212   3.767 -0.4254  0.0537 -0.1535
28831W        W60047  15.751  18.408   8.100 -0.0568  0.0857 -0.1729
28832W        W60048  26.363   8.596  10.415  0.2398  0.2097 -0.1667
28833W        W60049  12.338   1.456   3.166 -0.2836  0.0793 -0.0565
28834W        W60050  19.568  14.314   0.575  0.0687  0.2711  0.0542
28835W        W60051  17.756   7.988   2.273 -0.0014 -0.1903  0.1087
28836W        W60052   8.702   4.645   2.709 -0.1793  0.0903  0.1461
28837W        W60053  24.731   9.917   8.272 -0.1646 -0.0484  0.2040
28838W        W60054  20.095  27.379   9.019  0.1958 -0.1730  0.0320
28839W        W60055  20.178  17.067   2.113  0.0853  0.2122  0.0532
28840W        W60056  22.127  26.268   9.390 -0.0431 -0.4313 -0.1601
28841W        W60057  27.154   9.906   0.799 -0.1411  0.0247  0.2653
28842W        W60058  23.257  10.696   8.919  0.2345 -0.0939 -0.0069
28843W        W60059   2.491  25.205   9.140  0.0509 -0.1018  0.2937
28844W        W60060   8.394  18.985   1.842 -0.1515 -0.1124  0.3127
28845W        W60061  24.682  27.177   7.976 -0.1341 -0.0854  0.2120
28846W        W60062   0.803  24.618   9.312 -0.0788  0.1940 -0.1376
28847W        W60063   8.586  16.779   8.399 -0.4308 -0.0462 -0.1283
28848W        W60064   2.755  14.778   3.280 -0.3286 -0.3088 -0.2284
28849W        W60065  17.426  17.709   2.453 -0.0622  0.0341  0.1488
28850W        W60066  14.194  27.215   1.901  0.0633 -0.1712  0.0891
28851W        W60067   4.162  26.626   1.540  0.2675 -0.2131 -0.1225
28852W        W60068  23.374  10.106   0.795 -0.0156 -0.0714  0.2386
28853W        W60069   4.859   4.889  10.029 -0.1458  0.0759  0.2736
28854W        W60070  22.937  11.534  10.245  0.0144 -0.1209  0.0632
28855W        W60071  17.785   6.103   1.645 -0.0498 -0.0140  0.0440
28856W        W60072  16.925   1.743   2.180  0.0474 -0.0785 -0.1985
28857W        W60073  13.215  22.690   8.145  0.0074 -0.4539 -0.1856
28858W        W60074  23.453  27.556   8.679 -0.2748 -0.0240 -0.2312
28859W        W60075  24.027   3.146   9.765 -0.3664  0.0546  0.0038
28860W        W60076   0.489   9.178   9.229  0.1475 -0.0951 -0.3036
28861W        W60077  23.243  20.311   7.255 -0.2930  0.0302 -0.2942
28862W        W60078   7.253  12.327   2.550  0.1196  0.1853 -0.0936
28863W        W60079   2.230   3.816   9.520  0.2176  0.4809  0.2157
28864W        W60080  12.564   1.681   2.599 -0.0510  0.3298 -0.0701
28865W        W60081   8.716  23.834   1.852 -0.1743 -0.1621 -0.1662
28866W        W60082   6.235  15.794   9.288 -0.3435 -0.1018 -0.0642
28867W        W60083   4.582  21.794   0.849  0.3231  0.1408  0.0714
28868W        W60084  13.544   7.420   0.144 -0.0805  0.0954 -0.1663
28869W        W60085  24.074   8.192   2.265  0.1108 -0.0104  0.1980
28870W        W60086  12.658  21.609   2.897 -0.1764 -0.0712  0.0558
28871W        W60087  20.879  14.257   0.404  0.2749 -0.0283 -0.0214
28872W        W60088   1.898  19.955   0.028  0.2679 -0.2426 -0.3632
28873W        W60089   9.008   9.663   9.210 -0.0487 -0.3271 -0.0979
28874W        W60090   1.235   0.506   1.759 -0.1127  0.1769 -0.1051
28875W        W60091  27.445   0.468   2.682 -0.0008  0.1113 -0.2216
28876W        W60092  12.805  11.382   3.169 -0.1458 -0.0203 -0.1052
28877W        W60093   6.747  15.200   2.765  0.0788 -0.1862  0.1716
28878W        W60094  12.175  22.218   2.661  0.1055  0.2171 -0.0576
28879W        W60095   9.601   4.717   9.111 -0.2092 -0.0397  0.1271
28880W        W60096   1.104  21.961   3.964  0.0655  0.2262 -0.2532
28881W        W60097   9.438   5.423   0.989 -0.0379  0.3045 -0.1338
28882W        W60098  20.987  19.626   8.870  0.0834 -0.1985 -0.0760
28883W        W60099   7.202   8.921   2.247 -0.1121  0.0956 -0.2594
28884W        W60100   7.010  22.381   2.864 -0.0364 -0.0112 -0.2036
28885W        W60101  14.986  11.564   9.169  0.1716  0.0549 -0.2611
28886W        W60102   4.370  21.935  10.319 -0.2174  0.0754  0.0738
28887W        W60103   1.482  25.198   9.659 -0.1204 -0.2086 -0.2738
28888W        W60104  10.625  25.489   3.122  0.1950  0.1160  0.2368
28889W        W60105   7.181  13.526   9.495 -0.0449  0.0141 -0.0845
28890W        W60106  16.791   7.401   8.826 -0.0495 -0.1140 -0.0227
28891W        W60107  18.751   3.843   9.557 -0.0122  0.2609 -0.1186
28892W        W60108   1.464   2.307   9.884 -0.0796 -0.2373  0.0078
28893W        W60109  18.850  22.843   2.059 -0.3645 -0.0563 -0.1050
28894W        W60110   6.503   4.664   9.353  0.2532 -0.1393  0.0836
28895W        W60111   8.644   4.801   8.599 -0.5734  0.1840 -0.3688
28896W        W60112   9.181  18.182   2.734  0.1321 -0.0353  0.1503
28897W        W60113   8.808  20.071   0.911  0.1240 -0.1133  0.1240
28898W        W60114   5.202  11.126   9.662 -0.0981 -0.0807 -0.0658
28899W        W60115  23.687   1.314   9.021 -0.2822 -0.0077  0.1673
28900W        W60116   8.988  23.472   8.003  0.0355 -0.5079  0.0611
28901W        W60117  22.810  12.006   8.708  0.3676  0.0959 -0.2878
28902W        W60118   8.264  24.925  10.523 -0.2425 -0.2053 -0.2497
28903W        W60119  26.985   6.018   9.523 -0.0041 -0.0807  0.3264
28904W        W60120  18.608  21.075   9.757 -0.3657  0.0124  0.0564
28905W        W60121  11.608  10.613   8.689 -0.3729  0.1063  0.0535
28906W        W60122   5.080  19.934  10.350  0.3046 -0.0371 -0.0799
28907W        W60123   3.127   0.834   8.020 -0.2687 -0.3221 -0.0542
28908W        W60124   1.651   9.333   9.062 -0.4012 -0.0421 -0.0732
28909W        W60125  22.855  18.443   1.277 -0.0608  0.1304  0.0203
28910W        W60126  21.035  18.427   7.603 -0.0035 -0.0167 -0.1196
28911W        W60127   3.368   2.048   2.406  0.1413  0.0546  0.2322
28912W        W60128  18.694  27.456   1.102 -0.0582  0.2447  0.0249
28913W        W60129   3.612   0.066   9.928 -0.0266  0.1359 -0.0007
28914W        W60130   9.843   1.780  10.421  0.0211  0.3124  0.0984
28915W        W60131  22.315   4.236   0.688  0.0326 -0.1300  0.3962
28916W        W60132   9.409  27.044   3.058 -0.1788 -0.2866 -0.2974
28917W        W60133  15.757   7.901   8.589  0.0975 -0.2244 -0.1077
28918W        W60134  21.770  24.978   1.818  0.1177  0.0854  0.2280
28919W        W60135   7.685   7.323   9.848 -0.0460 -0.0739  0.1583
28920W        W60136  22.090   5.748   0.225 -0.2845  0.3171 -0.0386
28921W        W60137  10.020   9.090  10.038  0.0141 -0.1820  0.3542
28922W        W60138  15.520  11.449   1.080  0.2536  0.0062  0.1513
28923W        W60139  17.658  12.915   0.746 -0.4432  0.1655 -0.3082
28924W        W60140  24.629  20.228   8.682  0.2454  0.1385 -0.2054
28925W        W60141  27.062  13.858  10.164 -0.2940  0.0495 -0.0609
28926W        W60142   0.274  21.793   0.652  0.0055 -0.1848  0.0160
28927W        W60143  15.393  23.964   1.930 -0.1231  0.2661 -0.0811
28928W        W60144  10.462   6.250   2.565  0.1084 -0.2484 -0.2819
28929W        W60145   9.363  12.344   8.733 -0.5075  0.0395  0.0775
28930W        W60146  21.433  13.544   9.803 -0.0729 -0.2008  0.1132
28931W        W60147  18.964   5.503   1.129 -0.1784  0.1070  0.1272
28932W        W60148  10.153  13.519   2.919 -0.0132 -0.1927  0.0118
28933W        W60149  26.940  25.470   2.037  0.2047 -0.4426  0.3841
28934W        W60150   4.572  26.895   3.275  0.2055 -0.3090 -0.1105
28935W        W60151   0.482  24.835   9.744 -0.0339 -0.0189 -0.1519
28936W        W60152   9.964   1.556   9.927 -0.1155 -0.1140 -0.2088
28937W        W60153  20.681  25.935   3.538  0.0487  0.0413 -0.0344
28938W        W60154  24.932  25.385   7.751 -0.1431 -0.2240  0.1194
28939W        W60155   4.873   0.436   0.157  0.1964  0.0438  0.1427
28940W        W60156  12.391  15.370   3.398  0.3825 -0.2094  0.1233
28941W        W60157  20.168   4.397   7.452  0.0420 -0.2518  0.0417
28942W        W60158  21.146  18.763   2.383  0.1382 -0.2890 -0.1219
28943W        W60159  26.644   9.642   3.608 -0.2078 -0.1404 -0.0193
28944W        W60160  26.350  13.501   9.468 -0.1816 -0.0615  0.0983
28945W        W60161  19.179  15.111  10.122 -0.0253 -0.0813  0.3064
28946W        W60162   0.125  23.112   9.610 -0.0532 -0.1722  0.1003
28947W        W60163  16.453   8.970   8.979 -0.3483  0.1418  0.0487
28948W        W60164   3.424   3.722   9.105  0.2276  0.0004  0.4229
28949W        W60165  10.884  16.631  10.539  0.0966  0.0464  0.3923
28950W        W60166  20.004  17.659   0.483 -0.0528 -0.1100 -0.0290
28951W        W60167  26.234  22.476   9.041 -0.1705 -0.0459 -0.0445
28952W        W60168  23.811  20.484   0.909  0.2038  0.0945  0.0170
28953W        W60169  12.630  12.814   2.182  0.2367 -0.1638  0.1137
28954W        W60170  24.862  20.334   7.994  0.2425  0.0634  0.0092
28955W        W60171  21.712   8.538   7.818 -0.1227 -0.1251  0.2920
28956W        W60172   7.599   0.826   1.941 -0.2467 -0.2976  0.3631
28957W        W60173   7.437   1.248   0.479 -0.0690  0.2105 -0.0608
28958W        W60174   5.658  27.399   9.674 -0.1075  0.2314  0.0193
28959W        W60175  26.774  19.198   7.775 -0.2835  0.5113  0.1006
28960W        W60176  24.208  10.898   9.654 -0.2934 -0.0138  0.0386
28961W        W60177   8.624   7.005   8.751  0.1424 -0.4276 -0.0663
28962W        W60178  24.764  15.944  10.124  0.1420  0.4071  0.0643
28963W        W60179   7.745   9.482   2.770  0.1242 -0.2923  0.3809
28964W        W60180  23.749  20.414   9.975 -0.1273  0.0787 -0.3853
28965W        W60181   5.804  17.434   8.506  0.1898  0.2627  0.2354
28966W        W60182   5.240  27.209  10.266  0.0416  0.2931 -0.0650
28967W        W60183  16.302  16.356   8.265 -0.1036 -0.0898 -0.1706
28968W        W60184   1.050  22.438   1.464 -0.0169  0.0731  0.2933
28969W        W60185   3.681  15.177  10.206  0.2340  0.1375  0.0784
28970W        W60186  22.279  27.226   9.072  0.1136  0.0007  0.3049
28971W        W60187  26.149  13.847   2.010 -0.2111 -0.0175 -0.0777
28972W        W60188  12.037   3.728   0.162  0.0833  0.2086  0.0635
28973W        W60189  10.006  13.809  10.191  0.0315  0.0615  0.2225
28974W        W60190  22.143  16.195   9.578 -0.0356 -0.0188  0.1297
28975W        W60191  20.319  11.864   7.888  0.2697 -0.0651  0.0075
28976W        W60192  27.594  16.541   2.296  0.0062  0.1213 -0.2280
28977W        W60193   2.385  14.683   9.812  0.0622 -0.0857  0.2374
28978W        W60194  10.463  23.275   2.937  0.1392 -0.1025 -0.1955
28979W        W60195  23.144  23.673   0.296 -0.0681  0.3455 -0.3073
28980W        W60196  22.000   2.358   2.704  0.0074 -0.2198 -0.0674
28981W        W60197  15.022  26.138   3.202 -0.2198 -0.3572  0.0190
28982W        W60198  17.918  22.301   0.426 -0.3113 -0.0307  0.0843
28983W        W60199   9.439  21.922   2.506  0.0537  0.0004 -0.1703
28984W        W60200   1.631  11.935   0.702 -0.1137 -0.0577  0.0189
28985W        W60201  10.130   1.576   8.704  0.3158  0.1127 -0.0698
28986W        W60202   0.836  25.025   8.995 -0.2641  0.0832 -0.0692
28987W        W60203  21.150  16.262   1.700 -0.3137  0.2978 -0.1386
28988W        W60204   7.902   4.000   7.452  0.2144  0.0963 -0.1518
28989W        W60205   1.485  20.221   3.011  0.0968 -0.0079  0.3212
28990W        W60206  22.995   9.356   0.282 -0.3628  0.0886  0.1383
28991W        W60207   8.323  12.122   7.278 -0.0068 -0.1425  0.1734
28992W        W60208   9.674  10.482   9.455  0.2405 -0.1732  0.2384
28993W        W60209  26.524  25.547   0.325 -0.2616 -0.2099  0.2400
28994W        W60210  24.925   9.896   0.226  0.0786  0.0998  0.3384
28995W        W60211   5.562  19.607   0.572  0.1197 -0.3054  0.2135
28996W        W60212  16.373  18.826   8.258  0.2191 -0.1652  0.1612
28997W        W60213   6.226  22.062   3.028  0.0432 -0.1112  0.0696
28998W        W60214  18.400   3.056   0.985  0.2117  0.0134 -0.2738
28999W        W60215   3.402  14.486   2.788 -0.1609 -0.0216 -0.0612
29000W        W60216   5.617  21.940   3.387 -0.2308 -0.0040  0.1215
29001W        W60217  22.836   9.673  10.349 -0.0118 -0.1332  0.0871
29002W        W60218   9.576  17.794   2.657 -0.0420  0.1544 -0.3249
29003W        W60219   6.202  11.812   0.673 -0.2393 -0.4299  0.3842
29004W        W60220  12.161  16.861   9.163 -0.2507  0.0974 -0.1303
29005W        W60221  14.010  22.361   1.414 -0.3891  0.1136 -0.2230
29006W        W60222   8.634  25.732   1.649 -0.0470 -0.1604 -0.1582
29007W        W60223  20.302  11.609   1.486 -0.0027 -0.0629 -0.0587
29008W        W60224  26.360  23.146   3.534  0.2386 -0.4574 -0.0119
29009W        W60225  11.014   8.192   2.081 -0.1436  0.1168  0.0366
29010W        W60226  20.933   8.528   0.215 -0.2143 -0.2207 -0.3249
29011W        W60227  23.502   7.156   3.079 -0.2828  0.2357 -0.1204
29012W        W60228   9.225   8.806   1.693 -0.1926  0.3132 -0.2611
29013W        W60229   5.665  16.751   7.645  0.0838 -0.1043 -0.1026
29014W        W60230  12.336  17.690   3.393 -0.2196  0.0356  0.1973
29015W        W60231  25.648  25.997   2.180 -0.0944  0.2771  0.1372
29016W        W60232   4.653   4.081   8.692 -0.0030  0.2382  0.1416
29017W        W60233   9.873  23.933  10.404  0.1650  0.2416  0.3765
29018W        W60234   5.631  12.598   0.248 -0.0301 -0.0534 -0.0326
29019W        W60235  14.443   1.227   3.483 -0.2275  0.0814  0.3006
29020W        W60236   9.421   0.907   1.742  0.0424 -0.0013  0.2208
29021W        W60237   9.703   7.255   1.462 -0.2552 -0.0948 -0.2867
29022W        W60238   4.138   8.797   1.079 -0.1911 -0.1330  0.1568
29023W        W60239  10.055  20.635   1.210  0.0751  0.2373  0.3008
29024W        W60240   0.709   5.526   7.953  0.1657  0.1575  0.0147
29025W        W60241  11.515  27.512   2.758 -0.2768 -0.1268  0.2430
29026W        W60242  15.532   9.580   2.996  0.1669  0.1504  0.0003
29027W        W60243  12.347  19.503   3.562  0.1107  0.1632  0.0193
29028W        W60244  15.897  16.817   3.465 -0.1217 -0.0514 -0.0250
29029W        W60245   1.080  20.468   2.223  0.3876 -0.0905 -0.2694
29030W        W60246   0.845  13.084   9.930  0.0380 -0.0129  0.1737
29031W        W60247   2.084   6.700  10.351  0.0084  0.0601 -0.1941
29032W        W60248  24.422  13.517   1.797  0.1403 -0.1246  0.0220
29033W        W60249  11.987  22.352   7.509 -0.3662 -0.1819  0.1531
29034W        W60250  23.620   7.253   0.417  0.1609  0.3835  0.2796
29035W        W60251   3.824  22.679  10.484  0.1822  0.1061  0.1586
29036W        W60252  25.456   2.646   0.514  0.2216  0.2105  0.0008
29037W        W60253  21.292  16.683   2.378 -0.0640  0.1472  0.0749
29038W        W60254   7.746   7.293   8.581  0.0464 -0.0648 -0.3753
29039W        W60255  10.774  12.278   7.814 -0.4100  0.0204 -0.0009
29040W        W60256  13.734   1.508   9.664 -0.2277 -0.2912  0.1595
29041W        W60257  24.550  10.164   2.787  0.0564 -0.0698 -0.0353
29042W        W60258   3.249  13.178   3.498 -0.2744  0.0665  0.1043
29043W        W60259  18.241   4.734   3.080 -0.0187 -0.1704 -0.1497
29044W        W60260   3.569   4.929   0.316  0.0280  0.0241  0.1798
29045W        W60261   1.191  12.211  10.454 -0.2634  0.2017 -0.0613
29046W        W60262   3.186  15.124   0.811  0.0293 -0.1980  0.0564
29047W        W60263  27.265   2.641   9.505 -0.0540  0.1175  0.1014
29048W        W60264  17.660  14.088   0.281  0.0465 -0.0060 -0.3016
29049W        W60265  15.826  20.976  10.236 -0.2069  0.2563 -0.1643
29050W        W60266   6.829  26.953   8.225 -0.2877  0.4590 -0.0772
29051W        W60267  26.087  18.725   8.980  0.0658 -0.1383 -0.3674
29052W        W60268  19.673   3.058   7.656 -0.0824 -0.0677  0.1324
29053W        W60269  26.546  10.516   1.496  0.3201  0.2308 -0.1788
29054W        W60270   1.949  22.997   2.294 -0.1953 -0.2954  0.1488
29055W        W60271   1.670   8.657   0.817 -0.2618  0.3046 -0.1067
29056W        W60272  15.152  18.882   0.265 -0.1870  0.3161  0.0523
29057W        W60273  11.343  17.311   9.020  0.3995  0.1059  0.1454
29058W        W60274  24.857  16.289   8.217  0.0528  0.2546  0.2830
29059W        W60275   9.152  12.053   8.212  0.0242  0.1055 -0.0175
29060W        W60276  13.532  19.797   3.228 -0.1190  0.1265 -0.4089
29061W        W60277  15.971   0.627   3.113 -0.1341  0.3851  0.1059
29062W        W60278  19.243   0.724   1.710  0.3868  0.1420  0.0513
29063W        W60279  13.491  25.838   3.638  0.0435 -0.1967  0.1722
29064W        W60280  24.097  23.664   9.186  0.0709  0.0480 -0.2340
29065W        W60281  18.335  13.678   0.944 -0.4406  0.1581 -0.2328
29066W        W60282  19.580   9.805  10.285  0.0988 -0.3157  0.1150
29067W        W60283  11.605   6.674   0.020  0.0503  0.0786  0.1761
29068W        W60284  10.867   7.694   9.449  0.0529 -0.2903 -0.0603
29069W        W60285  26.637   2.080   1.288 -0.1418 -0.1063  0.1986
29070W        W60286   9.059  17.427   8.494  0.1651  0.0133 -0.0746
29071W        W60287  11.250  11.736  10.309  0.2842 -0.2021 -0.2619
29072W        W60288   0.289   8.180   9.673 -0.0080 -0.0915 -0.1603
29073W        W60289  26.903   1.902   3.408 -0.3750  0.1204 -0.1660
29074W        W60290  19.238  22.970   8.921  0.2809  0.1542 -0.1061
29075W        W60291  10.578   8.166   8.527  0.2624 -0.0992 -0.1385
29076W        W60292   7.202  22.324   9.697 -0.2335 -0.3218 -0.3392
29077W        W60293   5.316   5.076   7.861 -0.3967 -0.2949 -0.0629
29078W        W60294  17.737   6.110   8.807 -0.0882  0.1111 -0.1742
29079W        W60295   7.332  10.932   0.522 -0.0825  0.0733  0.0459
29080W        W60296   3.529   8.073   0.024  0.4070  0.2009 -0.3439
29081W        W60297  18.062  16.214   2.293  0.0156  0.2959  0.1325
29082W        W60298   5.332   6.489   7.887 -0.1983  0.2110 -0.2020
29083W        W60299  25.162   8.990   2.581  0.1599 -0.4453 -0.2383
29084W        W60300   8.415  22.671   8.812  0.0202  0.1706  0.1460
29085W        W60301  10.107   4.059   1.841 -0.1251  0.0916  0.0612
29086W        W60302   8.272  20.842   2.314 -0.4718 -0.1526 -0.0011
29087W        W60303   7.314   7.651   9.988  0.0705 -0.0795 -0.0834
29088W        W60304   3.286  17.706   7.978  0.0992  0.1209 -0.1247
29089W        W60305  24.515  10.205   8.694 -0.0732  0.2572 -0.0148
29090W        W60306  22.318  20.013  10.523 -0.0093  0.1898 -0.2165
29091W        W60307   7.854   0.559   8.806 -0.0012 -0.2085 -0.0182
29092W        W60308  26.215  21.298   7.912 -0.0701  0.0820  0.2267
29093W        W60309   1.947   9.929   8.160  0.2404  0.0805  0.2884
29094W        W60310  18.779   4.032   0.335 -0.0332 -0.3656 -0.0446
29095W        W60311   9.297  11.472  10.067 -0.2963 -0.3662 -0.1666
29096W        W60312   5.956   4.026   7.059  0.1665  0.0505 -0.1498
29097W        W60313   5.342  10.217   9.684  0.1002 -0.0170  0.2325
29098W        W60314  10.796  14.236   0.902  0.2470 -0.2109  0.0139
29099W        W60315  24.927   6.065   2.949 -0.3376 -0.0888 -0.3282
29100W        W60316   6.759  13.193   0.248  0.2054  0.0953  0.3960
29101W        W60317  11.942  20.725   0.895  0.0004 -0.2806  0.3351
29102W        W60318  20.511  20.387   8.696 -0.0824  0.1563  0.0591
29103W        W60319  10.346   0.293   0.652  0.4684 -0.0954 -0.2070
29104W        W60320  23.283  14.766   3.498  0.2474  0.1714  0.0330
29105W        W60321   3.259   0.132   3.757 -0.0150  0.0237 -0.1025
29106W        W60322   3.518  22.639   0.336 -0.2269 -0.3078 -0.2889
29107W        W60323   2.033   2.515   9.272 -0.0009  0.3127  0.0026
29108W        W60324   9.459  21.795   3.589 -0.2464 -0.2642 -0.0714
29109W        W60325  20.009   6.260   0.710  0.2973  0.0347  0.0681
29110W        W60326  25.843   7.837   9.608 -0.4328  0.4115  0.0605
29111W        W60327  22.286   6.215   0.054 -0.1022 -0.1237 -0.0286
29112W        W60328  18.538  21.289   1.878  0.0439  0.0237  0.0313
29113W        W60329  24.139  11.789   1.215 -0.2338 -0.1162  0.0773
29114W        W60330  19.141  11.756   0.517  0.1479 -0.1563 -0.1371
29115W        W60331  17.933  25.827   3.102  0.4031 -0.0779 -0.1254
29116W        W60332   5.902  19.308   2.844  0.0506 -0.1302  0.1076
29117W        W60333   1.749  20.667   0.637  0.3477 -0.0360 -0.0985
29118W        W60334   9.611   0.764   0.827  0.2367 -0.2024  0.2844
29119W        W60335  23.236  21.254   9.397 -0.0126  0.1741  0.2969
29120W        W60336  10.390  19.866   9.646  0.0327 -0.0352 -0.1589
29121W        W60337   3.478   5.214   1.961 -0.3829  0.1271 -0.0059
29122W        W60338   3.031  14.380   2.440  0.1111  0.3284  0.2833
29123W        W60339   9.676  24.884   0.863  0.1102  0.0956  0.3170
29124W        W60340  13.879  10.852   3.130 -0.0872  0.0659  0.0007
29125W        W60341  14.821  14.449   2.924 -0.0550 -0.2072  0.2112
29126W        W60342   7.499  21.680   9.261 -0.0676 -0.2809 -0.1765
29127W        W60343  27.514  25.521   3.237  0.0311  0.2711 -0.0371
29128W        W60344   1.231  18.826   8.343  0.2801 -0.0401  0.2242
29129W        W60345   8.335   2.941   9.095 -0.0411  0.0224 -0.3568
29130W        W60346  13.861  24.840   7.844 -0.1965 -0.2084  0.0532
29131W        W60347   3.577  12.011   1.993 -0.0576 -0.2268  0.2450
29132W        W60348  26.092  20.327   0.328  0.0229 -0.0265 -0.1199
29133W        W60349  25.704  12.512   1.890  0.0099  0.3570  0.1231
29134W        W60350   7.785   4.291   7.014 -0.2218  0.0162  0.1949
29135W        W60351  18.522  18.972   0.944  0.1538  0.3113  0.2158
29136W        W60352  16.876   2.442   0.924 -0.0653  0.0839  0.2450
29137W        W60353  13.916   5.216   0.596 -0.0061  0.0578  0.0188
29138W        W60354  27.323  20.967  10.095 -0.2010  0.4625  0.0944
29139W        W60355  20.139  15.182   7.261  0.0650 -0.0121  0.1946
29140W        W60356  16.049   1.741   9.979 -0.0415 -0.1481  0.0474
29141W        W60357  15.077  22.213   2.567  0.1128 -0.1693  0.2674
29142W        W60358  24.653  10.621   3.941  0.1874  0.2282 -0.0627
29143W        W60359  16.638  10.631  10.325 -0.0329 -0.3117 -0.1456
29144W        W60360   4.909  13.658   7.245  0.1199  0.1760 -0.3615
29145W        W60361  25.385  10.095   3.057 -0.0516  0.0815 -0.0226
29146W        W60362  15.063  15.431   0.491  0.0309  0.5172 -0.0144
29147W        W60363  15.343   1.267   3.319  0.1445  0.0588  0.0618
29148W        W60364   4.191   3.193   9.681 -0.1311 -0.2476  0.2018
29149W        W60365  27.582  20.556   8.768  0.1698  0.2579  0.3839
29150W        W60366  14.940  15.973   2.852 -0.1601  0.0106  0.3068
29151W        W60367  22.440   3.872   0.991  0.0787 -0.1436 -0.2715
29152W        W60368  18.714  20.228   1.338 -0.0778 -0.0577  0.0838
29153W        W60369  23.313  24.080   2.708  0.2466  0.2332  0.0014
29154W        W60370   2.846  16.181   9.467 -0.3309  0.2723 -0.0326
29155W        W60371  21.013  10.550   8.156  0.2490  0.1055 -0.3853
29156W        W60372   0.999  16.290   9.576  0.0137 -0.2153  0.1505
29157W        W60373   5.087  12.781   7.905  0.1227  0.4585  0.0354
29158W        W60374  27.361  23.115   8.674 -0.2087  0.0069  0.0066
29159W        W60375   4.520  24.387   8.868  0.0948 -0.1092  0.1039
29160W        W60376  22.923   3.946   0.978  0.1882  0.1313 -0.1241
29161W        W60377   0.743   8.214   9.996  0.0122  0.1770 -0.2006
29162W        W60378   0.065   6.582   9.889 -0.0852 -0.2896  0.0438
29163W        W60379   4.113  12.762   9.920  0.0685 -0.0363  0.4538
29164W        W60380  14.026  26.596   9.117 -0.2043  0.5427 -0.1450
29165W        W60381  16.243  12.807   1.871 -0.3042 -0.1644  0.2486
29166W        W60382   8.426   5.903   2.934  0.0916 -0.0711 -0.3221
29167W        W60383  26.426   1.159   0.787  0.1441  0.1313 -0.0911
29168W        W60384  12.090  13.087   0.751  0.1329  0.2069  0.3478
29169W        W60385  10.671  23.731   1.938  0.0268  0.0309  0.0753
29170W        W60386   5.648  13.795   2.611  0.0636 -0.0842  0.1816
29171W        W60387  23.114   1.097   1.554 -0.0299  0.0761 -0.0862
29172W        W60388   5.023   2.677   7.574 -0.3614  0.0262  0.0065
29173W        W60389  21.270  21.592   0.570  0.0107  0.2197 -0.0763
29174W        W60390   0.626   9.097   1.809 -0.1186 -0.1510 -0.0267
29175W        W60391  12.273   3.794   3.199 -0.3049 -0.3355  0.0108
29176W        W60392  26.998  26.336   3.095  0.2390 -0.0428 -0.2760
29177W        W60393  26.795   1.616   1.319  0.0398 -0.0382 -0.2185
29178W        W60394  16.155  14.065   1.853 -0.0101 -0.1751  0.0425
29179W        W60395  19.601  13.202   8.739 -0.2060 -0.0872  0.2643
29180W        W60396  12.231   8.505   2.536  0.0362  0.1041 -0.3278
29181W        W60397   4.009  25.577   1.164 -0.0748 -0.1108  0.0252
29182W        W60398   9.804  24.359   2.991 -0.0632 -0.2076  0.2487
29183W        W60399  10.552  22.559   9.437  0.1619 -0.0327 -0.1818
29184W        W60400  24.110   0.108   2.149 -0.1670 -0.0516  0.4178
29185W        W60401   2.773  19.001   1.280 -0.0895  0.1750 -0.0223
29186W        W60402  11.887   3.272   1.088  0.2760 -0.1108  0.0203
29187W        W60403   3.561  18.394   9.523  0.2139 -0.3297 -0.2062
29188W        W60404  10.942  10.600   1.539  0.0930  0.1251 -0.1662
29189W        W60405   9.852   9.118   9.039 -0.0474 -0.1823  0.1278
29190W        W60406  17.687  12.698   9.350 -0.2025  0.1616  0.1040
29191W        W60407  26.555  10.766   2.374  0.0386 -0.2181  0.4952
29192W        W60408   1.598  17.604  10.489 -0.0242  0.1640  0.0756
29193W        W60409   1.871   7.048   2.852 -0.0335  0.4612 -0.4851
29194W        W60410  25.336  12.145   2.840  0.2404 -0.2463  0.3871
29195W        W60411  19.871   2.348   2.807  0.0491 -0.3066 -0.0903
29196W        W60412   7.209   1.377   9.702  0.0563 -0.0736  0.0741
29197W        W60413  17.124   5.222   9.347 -0.1505 -0.1697 -0.0220
29198W        W60414  21.527  18.613   2.113 -0.0568 -0.1750 -0.3269
29199W        W60415  20.073  10.979   1.573  0.0413  0.2903  0.3827
29200W        W60416   2.846  12.800   1.417  0.2912  0.0598 -0.0185
29201W        W60417  23.979   2.978   3.361  0.0499  0.2789 -0.3075
29202W        W60418  15.013  19.116   8.248 -0.0632  0.1423  0.0226
29203W        W60419   0.654  25.311   9.802  0.2546 -0.1333 -0.1256
29204W        W60420  17.433  15.861   2.748 -0.1879  0.1402  0.0566
29205W        W60421  26.263   5.976   9.659  0.2070 -0.1984  0.1294
29206W        W60422  11.553  20.737   7.904  0.5189  0.4356 -0.0467
29207W        W60423   4.784   1.373   0.824 -0.2870  0.1410  0.2132
29208W        W60424   8.558  22.745   0.899  0.1300  0.0503 -0.0360
29209W        W60425  22.584  15.414   9.743 -0.0208  0.2403 -0.3646
29210W        W60426  23.885   1.920   2.048  0.2364 -0.3695  0.3282
29211W        W60427  12.414  22.653   2.595 -0.1970 -0.0177  0.0218
29212W        W60428  27.391  20.853   2.156 -0.0090  0.1017  0.2394
29213W        W60429  16.389   2.973   2.652 -0.1298 -0.3021 -0.4163
29214W        W60430  26.420   8.525   0.390  0.2840 -0.1197  0.1191
29215W        W60431  26.056  24.078   8.058  0.2088 -0.0189  0.2142
29216W        W60432  24.438  17.602  10.152 -0.0359  0.1769  0.0957
29217W        W60433   5.297   7.954  10.389  0.1953  0.0328 -0.1900
29218W        W60434  13.168  24.935   0.365 -0.0293  0.0061  0.1688
29219W        W60435  24.268   6.514   3.208  0.0469 -0.2084 -0.1224
29220W        W60436  16.767   7.838   9.134  0.3476  0.1484 -0.0351
29221W        W60437  16.410   0.384   3.143  0.0473  0.1042 -0.1862
29222W        W60438  20.757   6.463   2.317  0.1885 -0.0946 -0.3671
29223W        W60439   0.977   1.669   0.710  0.0692 -0.1161 -0.1967
29224W        W60440  22.591   0.371   1.847 -0.2940 -0.1808  0.2230
29225W        W60441  25.221  11.226   1.647 -0.2135  0.0809  0.0241
29226W        W60442  18.214   7.573   8.896  0.2299  0.0817 -0.0189
29227W        W60443   2.219   2.807   2.519 -0.0971  0.1274 -0.2097
29228W        W60444  19.786  15.683   2.248 -0.0397  0.2327 -0.3957
29229W        W60445  23.301  23.898   7.739  0.1283 -0.0131  0.2083
29230W        W60446  26.908   9.743  10.467  0.0047  0.4031 -0.2599
29231W        W60447  26.738  22.428   1.964 -0.1332 -0.0373 -0.0541
29232W        W60448  23.906   9.671   8.040 -0.2426  0.0635  0.1766
29233W        W60449   4.173   1.836  10.351 -0.1236  0.0023  0.2853
29234W        W60450  10.884  13.121   1.996 -0.0522  0.0247  0.1608
29235W        W60451  10.232  16.342   9.862  0.1407  0.1338 -0.0198
29236W        W60452   2.127  17.677   2.990  0.0706 -0.0805  0.1032
29237W        W60453  11.095  24.501   9.695 -0.0272  0.1046  0.1574
29238W        W60454  21.893  25.832  10.340 -0.2259  0.0587  0.1840
29239W        W60455  20.220  15.923   1.599  0.0949  0.1969 -0.0105
29240W        W60456   5.895   2.299   8.424 -0.0664  0.0562  0.0699
29241W        W60457  13.277  17.962   2.466 -0.1538  0.1532 -0.0595
29242W        W60458   9.740   2.958   0.472 -0.0327 -0.1017  0.0173
29243W        W60459  11.180  19.564   7.834  0.0465  0.0631 -0.1637
29244W        W60460  25.504   2.639   8.461 -0.0194  0.1343  0.0880
29245W        W60461  14.213  25.552   9.148  0.0441 -0.0168  0.0298
29246W        W60462   9.745  26.547   9.267  0.4177 -0.3889 -0.3383
29247W        W60463  17.899   7.477   9.836 -0.2290  0.0014 -0.1323
29248W        W60464  26.405   7.993   0.227  0.2734 -0.0843 -0.1254
29249W        W60465  19.646  26.626   1.260  0.1420  0.1021 -0.0500
29250W        W60466   6.228  27.367   2.405  0.0406 -0.3106 -0.3310
29251W        W60467  23.787  13.070   0.367 -0.0859  0.1363  0.0455
29252W        W60468  23.754  19.150   2.111  0.2205  0.1374  0.0728
29253W        W60469   8.262   3.404   9.293 -0.2871 -0.0320  0.3775
29254W        W60470   2.781  23.728  10.233 -0.1492  0.0423  0.0491
29255W        W60471  24.314  11.147   2.110  0.1869 -0.1257  0.1343
29256W        W60472   3.895   7.764   9.323 -0.5220  0.0191  0.1800
29257W        W60473  21.759   7.959   2.636 -0.1959 -0.1509 -0.0980
29258W        W60474   5.602   0.123   3.255 -0.3188 -0.0856 -0.2184
29259W        W60475  18.970  24.160   8.540 -0.2502  0.0646 -0.2660
29260W        W60476   6.965  14.013   0.134 -0.0615  0.2559  0.0372
29261W        W60477  16.622  25.265   3.195  0.2592  0.0196  0.0962
29262W        W60478   9.078  16.026   1.263 -0.0222 -0.1586 -0.0623
29263W        W60479  12.869  21.071   1.030  0.0303  0.1027 -0.2278
29264W        W60480  25.296  16.133   9.100 -0.0732  0.1521  0.0766
29265W        W60481   9.804  15.559   1.368 -0.3267  0.4008 -0.0222
29266W        W60482   1.046   2.478  10.049  0.1713 -0.1599  0.0307
29267W        W60483  15.548  11.281   9.287  0.2005  0.0864  0.1282
29268W        W60484  12.580  23.926   2.102 -0.0058  0.4645  0.0333
29269W        W60485  20.984   0.552   3.836  0.1099 -0.3638  0.0301
29270W        W60486   9.985   4.973   2.172  0.2535 -0.3621  0.1826
29271W        W60487   2.752   1.539   8.944  0.0684  0.0260 -0.3829
29272W        W60488   5.388   4.378   9.322  0.1333  0.0076 -0.4206
29273W        W60489   9.544  25.905   3.075  0.4483  0.1391 -0.0644
29274W        W60490  24.837  19.808   2.268 -0.1624  0.0918 -0.1431
29275W        W60491  18.231  14.702   0.997 -0.2233  0.1112 -0.1238
29276W        W60492   3.798  14.238   1.552 -0.2920 -0.0532 -0.2419
29277W        W60493  20.096  12.834   2.315 -0.4095 -0.0421 -0.3283
29278W        W60494  20.294  16.662   9.458 -0.0502 -0.5251  0.2384
29279W        W60495   7.364  23.554   8.749 -0.1448 -0.1637  0.0670
29280W        W60496   2.791   0.678   2.451 -0.1347 -0.2573 -0.3269
29281W        W60497  21.009  17.719   8.834 -0.4513 -0.1116 -0.0478
29282W        W60498   7.493  13.919   0.451  0.4157 -0.1286  0.0409
29283W        W60499  11.640   6.575   2.228  0.1521 -0.0605 -0.2310
29284W        W60500  25.120   8.907   0.216  0.0989 -0.1193  0.0207
29285W        W60501  27.387   9.464   1.025 -0.2000  0.0433 -0.0438
29286W        W60502  15.468   5.752   9.540 -0.3613  0.2048 -0.1306
29287W        W60503   8.061  19.998   2.645  0.0132 -0.2242 -0.1735
29288W        W60504  10.405   0.496   3.337  0.3467 -0.0258  0.0165
29289W        W60505   7.036  27.074   0.790  0.1082  0.1998  0.0229
29290W        W60506   3.207   3.230   1.886 -0.0389  0.4349 -0.2049
29291W        W60507   6.633   5.930  10.408 -0.1917 -0.1282  0.1190
29292W        W60508  24.937   7.160   8.167 -0.1735 -0.1154  0.2394
29293W        W60509  24.524  18.419   1.390  0.1513 -0.0332 -0.1352
29294W        W60510  17.240  23.684   1.131 -0.3435 -0.0185 -0.1179
29295W        W60511  14.909   4.496   1.029  0.0405  0.2489 -0.1089
29296W        W60512  23.092  21.210   1.249 -0.0256 -0.4152  0.0317
29297W        W60513  21.850   1.762   1.854 -0.2700 -0.1852 -0.0166
29298W        W60514  11.644  16.600   9.562 -0.0645 -0.2146 -0.1295
29299W        W60515  12.144  13.064   1.286 -0.1467  0.1965 -0.0401
29300W        W60516  16.715  17.379   2.002  0.1839 -0.1441  0.0462
29301W        W60517  23.588  17.829   2.029 -0.0782  0.0066 -0.1412
29302W        W60518   9.107   6.246   8.098  0.0555  0.1685 -0.0069
29303W        W60519   0.276  22.572   0.855  0.3359 -0.3720 -0.0518
29304W        W60520  19.171   4.421   7.933  0.0070 -0.3457  0.2428
29305W        W60521  20.114  22.591   8.214  0.0276 -0.1531  0.3727
29306W        W60522   7.000  13.309   8.208 -0.0302 -0.4048 -0.2756
29307W        W60523  10.502  12.740   8.620  0.0235  0.3115 -0.0195
29308W        W60524  17.113  14.195   0.382 -0.0777 -0.2609  0.1060
29309W        W60525  15.245  26.175   3.641  0.3143 -0.1741 -0.0730
29310W        W60526  14.040  13.887   2.914 -0.1271 -0.1670 -0.1305
29311W        W60527   7.639  21.590   0.139 -0.1960 -0.1541 -0.0618
29312W        W60528  24.983   4.810   1.517  0.3150 -0.0665 -0.1045
29313W        W60529   1.288  13.266   0.349 -0.0113 -0.0286 -0.0663
29314W        W60530  16.726  23.788   1.300 -0.1433  0.0479  0.1970
29315W        W60531  13.727  20.354   9.127  0.0580  0.3300 -0.0461
29316W        W60532  25.422   1.374   1.635 -0.1109 -0.0182 -0.1310
29317W        W60533  22.205  24.080   0.109 -0.1963 -0.0121  0.1578
29318W        W60534  19.089  20.686   9.398 -0.0430  0.0095  0.1595
29319W        W60535  11.062   5.111   0.699  0.1707 -0.0494  0.1050
29320W        W60536   1.276   3.649   8.033 -0.1210  0.0914  0.0646
29321W        W60537  14.865  18.464   0.040  0.0823 -0.0196 -0.2522
29322W        W60538  20.713  22.786   1.455  0.1475 -0.1739 -0.1910
29323W        W60539  21.196  24.317   8.535 -0.1436 -0.0568 -0.2889
29324W        W60540  17.000  18.857   8.578 -0.1198 -0.0562  0.1237
29325W        W60541   8.894  24.126   0.732 -0.1751  0.1348 -0.1078
29326W        W60542   3.941  14.106   9.130  0.0597  0.1261  0.0589
29327W        W60543  22.943  16.167   9.688 -0.1012  0.0845  0.1560
29328W        W60544  23.601  14.408   1.450  0.0737 -0.1242  0.1286
29329W        W60545  22.017  14.982   1.643 -0.0866  0.0543  0.1381
29330W        W60546  16.379   0.033   9.200 -0.0629  0.1147  0.0550
29331W        W60547  25.199   1.675   8.739  0.3134 -0.5039 -0.4895
29332W        W60548  18.334  25.041  10.378  0.2058  0.2376 -0.2258
29333W        W60549  20.860   7.020   1.131  0.2722 -0.0570 -0.2439
29334W        W60550  24.641  20.818   7.996  0.1847 -0.2322 -0.2615
29335W        W60551  20.610  26.056   0.184 -0.1761  0.1460  0.1762
29336W        W60552   5.761   5.378   2.664 -0.1913  0.1453  0.1872
29337W        W60553  12.764   6.179   1.667  0.0318  0.1319 -0.1182
29338W        W60554  11.341  17.237   1.951  0.4605 -0.1156 -0.1310
29339W        W60555  16.438  11.887   0.262 -0.0023 -0.0472  0.1131
29340W        W60556  14.579   7.066   8.990  0.1647  0.2731  0.1098
29341W        W60557  13.532  15.953   0.639  0.2239  0.2818  0.2135
29342W        W60558  17.734  12.557   1.543  0.1531  0.2489 -0.1059
29343W        W60559  10.878   4.164  10.494 -0.2138 -0.0072 -0.0440
29344W        W60560  23.123   3.825   2.308  0.2538 -0.0319  0.2161
29345W        W60561  21.564  17.197   0.849  0.0530  0.0846  0.0979
29346W        W60562  13.987  18.374   9.767 -0.1092 -0.0586 -0.1788
29347W        W60563  25.614   1.644   0.546 -0.0945 -0.0703  0.0360
29348W        W60564  13.129   0.664   9.276 -0.0676 -0.0483  0.0289
29349W        W60565   3.590   8.933   2.504  0.0061 -0.2896 -0.1026
29350W        W60566   5.446   0.236   2.787  0.0551  0.0169  0.2283
29351W        W60567  26.695  17.548   8.435  0.0152 -0.2191  0.3690
29352W        W60568   6.196  19.266   2.367  0.2584 -0.0537 -0.1387
29353W        W60569  18.838  15.022   2.625  0.0327 -0.2067 -0.0463
29354W        W60570  21.738  18.860   9.895  0.2978 -0.0061 -0.1837
29355W        W60571  12.851  14.294   1.022  0.0482 -0.0967  0.2882
29356W        W60572   1.189   2.588   2.680  0.1564  0.0696  0.0284
29357W        W60573  22.912  23.714   7.495 -0.0895  0.0088 -0.2417
29358W        W60574  25.686  25.152   0.988 -0.1167  0.0308  0.1659
29359W        W60575  16.905  20.450   9.329 -0.2768  0.2653 -0.0537
29360W        W60576  22.843  27.030   2.009 -0.2455  0.2347  0.0071
29361W        W60577  18.417  27.598   0.627 -0.2424 -0.0023 -0.0827
29362W        W60578  23.058  22.619   3.511 -0.2749 -0.0024 -0.2178
29363W        W60579  12.931   9.241   9.779  0.1118  0.0519 -0.0018
29364W        W60580  19.715   0.693   0.523 -0.0775 -0.0314  0.0650
29365W        W60581   9.418  23.034   7.981  0.1002  0.1276  0.0707
29366W        W60582   0.073   2.567   0.528  0.2534 -0.0297 -0.1547
29367W        W60583  12.716  23.330   2.908  0.2378 -0.2811  0.2727
29368W        W60584  14.882  23.389   9.510 -0.1020  0.2955  0.0527
29369W        W60585  18.280  19.496   8.917  0.1180  0.1445  0.3378
29370W        W60586   5.627  10.081  10.441 -0.3059 -0.0247  0.1835
29371W        W60587   0.947   9.153   1.367  0.0986  0.0005 -0.1645
29372W        W60588   9.061  21.657  10.086 -0.0970  0.0256 -0.0276
29373W        W60589  10.921  19.891   8.049  0.2323 -0.0756 -0.0868
29374W        W60590  17.975  23.204   0.354 -0.1049 -0.0820  0.1410
29375W        W60591  20.594  23.452   8.518  0.1102 -0.0885  0.0968
29376W        W60592  22.958  24.847   2.086 -0.2690  0.0636 -0.0461
29377W        W60593   1.809   3.219   8.618  0.1491  0.0154  0.1431
29378W        W60594  17.310   1.791   9.203 -0.1616 -0.0531 -0.0932
29379W        W60595   0.964   1.385   3.703  0.0134 -0.2237 -0.1007
29380W        W60596   0.320   7.883   2.034  0.0868  0.1948 -0.1317
29381W        W60597  26.391  14.097   9.326  0.0061 -0.0263 -0.1188
29382W        W60598  17.525   6.307   0.201  0.1912  0.0257 -0.3566
29383W        W60599  11.685  23.311   3.098 -0.1995 -0.0060 -0.0982
29384W        W60600  18.590   8.844   8.404 -0.0481  0.1143 -0.0833
29385W        W60601   4.160   0.419   3.442 -0.3211 -0.0861 -0.0074
29386W        W60602  18.088  19.189   9.291  0.0524  0.0601  0.0317
29387W        W60603  23.947   4.327   9.381  0.2388  0.1659  0.2881
29388W        W60604  26.251  11.827   3.778 -0.2457 -0.1727  0.1052
29389W        W60605   0.103  12.071   9.921 -0.0057  0.0175 -0.0918
29390W        W60606   9.628   6.966   0.506 -0.0255 -0.3955 -0.2287
29391W        W60607   0.870  14.260   0.466 -0.1352 -0.0299 -0.2306
29392W        W60608  13.023  10.723   2.553 -0.0313 -0.4630 -0.0556
29393W        W60609  11.770  19.959   7.194  0.1780  0.1663 -0.0642
29394W        W60610  19.669   8.044   1.449  0.1062  0.0435 -0.1615
29395W        W60611   6.509  23.757   1.684 -0.1194  0.2251  0.1256
29396W        W60612  23.657   6.816  10.197  0.4129  0.0679  0.1192
29397W        W60613  11.550  23.757   2.099 -0.0543 -0.0333  0.0872
29398W        W60614  16.790   0.489   3.492 -0.1792  0.1691  0.0840
29399W        W60615   3.777  24.779   0.910 -0.0901  0.1491  0.2019
29400W        W60616   9.591  20.752   1.639 -0.1390  0.1185  0.4481
29401W        W60617  23.107  16.585   8.424  0.0469 -0.2474  0.0187
29402W        W60618  25.265   2.087   3.331 -0.1103  0.0938  0.2325
29403W        W60619  12.319  27.256   2.436  0.0594 -0.0327 -0.0925
29404W        W60620   3.483  15.267   8.561  0.0448 -0.0251  0.3918
29405W        W60621  12.152   8.539   9.624  0.1401 -0.1029  0.1038
29406W        W60622  15.792   9.997  10.154 -0.0016 -0.1828 -0.0796
29407W        W60623   0.093   6.973   0.025  0.0916 -0.3738 -0.0452
29408W        W60624  18.525   9.493  10.238  0.0757  0.2091 -0.1739
29409W        W60625   3.201  23.172   1.985 -0.1886  0.0313 -0.1441
29410W        W60626   6.425  11.269   8.358  0.2663 -0.0155  0.3293
29411W        W60627  21.414  10.953   0.859 -0.1500  0.2122 -0.0719
29412W        W60628  19.585  14.254   7.855 -0.1770 -0.0549 -0.1820
29413W        W60629  12.198  25.367   8.116  0.1058  0.0927  0.0282
29414W        W60630   5.165  25.939  10.454 -0.1044 -0.0814 -0.1540
29415W        W60631  11.532   3.191   2.617 -0.0055  0.0937  0.4071
29416W        W60632  16.758   0.787   3.075  0.1636 -0.2227  0.3040
29417W        W60633  25.235   5.573   9.780 -0.3752 -0.1080 -0.0347
29418W        W60634   6.760  22.148   9.950  0.0800  0.0577 -0.1636
29419W        W60635   7.678  23.478   9.243 -0.0607  0.4047  0.1087
29420W        W60636  25.178  27.416   8.792 -0.0149 -0.1941  0.0331
29421W        W60637  11.560   1.990   8.540 -0.0872 -0.0813 -0.0534
29422W        W60638  17.632   1.299  10.231 -0.0635 -0.1088  0.1559
29423W        W60639  25.502   4.988   9.088 -0.0128 -0.0627  0.0622
29424W        W60640  15.627  13.926   2.663  0.0666 -0.1596 -0.0719
29425W        W60641  17.620  10.145   7.166  0.2491  0.1888  0.0073
29426W        W60642   8.929   7.383   8.014 -0.3364 -0.0803  0.1384
29427W        W60643  15.584  10.232   8.312 -0.2787  0.1265 -0.1345
29428W        W60644   1.156  13.174   2.107 -0.1096  0.1745  0.0538
29429W        W60645  12.962  13.578   0.062 -0.2636 -0.0078  0.0958
29430W        W60646  24.283  18.577   8.327  0.1263  0.3121 -0.2488
29431W        W60647  14.938   9.858   3.065 -0.2739  0.0733  0.0249
29432W        W60648   2.423  19.676   9.881 -0.2957 -0.1166  0.2444
29433W        W60649  24.187  15.515   1.522  0.0394  0.0695 -0.2140
29434W        W60650  18.796   9.897   1.513 -0.3673 -0.0966  0.1586
29435W        W60651   3.237  12.482   1.635 -0.0643 -0.3022  0.1974
29436W        W60652   0.811   3.513   8.166 -0.1441  0.2707  0.2988
29437W        W60653   8.215  22.483   3.059  0.0567 -0.1859 -0.0604
29438W        W60654   5.851   6.030   0.225 -0.1539  0.0258 -0.0708
29439W        W60655  17.639   2.129   0.287 -0.2910 -0.2790  0.2378
29440W        W60656   8.605  19.202   0.979  0.0513 -0.2119  0.0278
29441W        W60657  12.886   0.539   9.916  0.0909 -0.1027  0.1434
29442W        W60658   9.312  15.175  10.024 -0.0865  0.2966 -0.0758
29443W        W60659  24.662  17.274   8.457 -0.4116  0.0948  0.2374
29444W        W60660   0.911   9.192  10.502 -0.2922  0.0525 -0.1445
29445W        W60661  13.026  11.379   1.798 -0.2121 -0.0839 -0.1232
29446W        W60662   5.241  27.170   3.133 -0.0626 -0.0926  0.1348
29447W        W60663  13.043  12.827   1.153 -0.0994  0.1655  0.2681
29448W        W60664  17.262  12.162   1.424  0.0442  0.1328 -0.1226
29449W        W60665   9.285   3.759   9.622  0.1085  0.2156 -0.3362
29450W        W60666  17.571   5.820   0.013 -0.1876  0.0795  0.0343
29451W        W60667  12.992  19.362   1.786 -0.0264 -0.1510  0.2475
29452W        W60668  12.408  21.515   9.114  0.2018 -0.1736  0.0532
29453W        W60669  26.536   3.950   2.967  0.3374 -0.1049  0.1241
29454W        W60670   4.584  25.859  10.428 -0.0922  0.0117  0.2737
29455W        W60671  23.242  24.195   1.056 -0.0590  0.2238  0.3637
29456W        W60672  10.763  24.609   2.174  0.5421 -0.1603  0.2305
29457W        W60673   7.694  10.506   2.878  0.0480 -0.0689 -0.1660
29458W        W60674  12.838  12.137   0.425  0.0645  0.3145 -0.3962
29459W        W60675  23.944   2.812   2.386  0.0306  0.0939  0.2793
29460W        W60676  16.196  20.653   2.402  0.0934  0.0687 -0.2873
29461W        W60677   6.396  17.481   8.289  0.2005 -0.0971 -0.0545
29462W        W60678   5.641  15.346   2.597 -0.2684  0.3674  0.0592
29463W        W60679   9.952  15.044   0.629  0.1379  0.0168  0.2185
29464W        W60680   6.851  11.227   0.722  0.1409 -0.2128  0.4852
29465W        W60681  17.300   0.607  10.457  0.0457  0.0906  0.0853
29466W        W60682  18.969  26.552   2.048  0.0162  0.0780  0.0808
29467W        W60683  14.473  18.417   2.894  0.1282 -0.0578 -0.1732
29468W        W60684   1.405  23.694   8.966  0.2919  0.2165 -0.1789
29469W        W60685  17.835  19.497   2.230 -0.1641  0.0343 -0.0134
29470W        W60686  25.803   1.072   9.063  0.1724 -0.0773 -0.4534
29471W        W60687  22.598  15.799   0.199 -0.0442 -0.0316  0.2487
29472W        W60688   3.654   8.299   8.653 -0.0300 -0.1672 -0.4960
29473W        W60689  22.389  18.583   0.940  0.1431  0.1164 -0.1501
29474W        W60690  24.062  17.695   2.258 -0.0152  0.0720  0.4009
29475W        W60691  24.180  10.435   1.922  0.2810 -0.0525  0.1596
29476W        W60692  24.460  10.559   3.113 -0.3652  0.1127  0.2495
29477W        W60693  15.521  14.461   0.041 -0.1887 -0.0891 -0.1880
29478W        W60694   2.641  26.174   9.313 -0.1861 -0.0815  0.3334
29479W        W60695   1.953   6.466   1.375 -0.0217 -0.1368 -0.0269
29480W        W60696  17.356  20.561   9.548 -0.3227  0.3793  0.3049
29481W        W60697   4.384  11.037   8.257 -0.1601 -0.2379  0.1094
29482W        W60698  25.436   9.813   8.892  0.0119  0.1010  0.1004
29483W        W60699  25.881  24.619   0.969  0.3768 -0.1595  0.0045
29484W        W60700  25.215   8.149   2.554 -0.0237 -0.2534  0.0006
29485W        W60701   3.964  22.165  10.149  0.0361 -0.0623 -0.0293
29486W        W60702   2.545  17.747   2.462 -0.1663 -0.3123 -0.0685
29487W        W60703  19.158   9.891   2.253 -0.2182  0.2661 -0.2271
29488W        W60704   3.036  21.397   7.985  0.1110 -0.2119  0.1088
29489W        W60705  22.107  13.790   8.287 -0.2130  0.2197  0.1988
29490W        W60706  14.998  22.472   3.674  0.0253 -0.4962 -0.1649
29491W        W60707   9.421   7.645   1.774  0.0236 -0.0293  0.0382
29492W        W60708   3.804  20.817   2.521  0.0177  0.3227  0.1903
29493W        W60709   0.615  14.043   9.651  0.3300  0.2968  0.5111
29494W        W60710  18.886  13.604   8.910  0.1852 -0.0329  0.2091
29495W        W60711  17.230  24.932   2.556 -0.1649  0.1132  0.2682
29496W        W60712   3.234   7.655   3.616  0.0063 -0.2183 -0.0591
29497W        W60713  17.496  20.627   1.732 -0.1341 -0.0398 -0.0626
29498W        W60714   3.976  20.580   9.209 -0.0087 -0.0129 -0.1467
29499W        W60715  11.304  26.596   1.732  0.0903  0.3936  0.3114
29500W        W60716  19.463   7.081   1.047 -0.4156  0.0290 -0.4066
29501W        W60717  12.807  20.822   9.315 -0.0823  0.0108  0.1578
29502W        W60718  16.328  11.442   9.310  0.0188 -0.0983 -0.1537
29503W        W60719  15.330   5.412   3.133 -0.3146 -0.1758 -0.1751
29504W        W60720   1.851   1.115  10.306 -0.1802  0.0816 -0.0892
29505W        W60721   2.548  25.092   0.309  0.0075  0.1068 -0.0306
29506W        W60722  19.195  12.299   1.473 -0.0044  0.0730 -0.0950
29507W        W60723   8.784  18.822   9.501 -0.0954 -0.0770  0.3472
29508W        W60724  19.165  14.603   9.986  0.0777 -0.1335 -0.0061
29509W        W60725   9.295  16.447   7.587  0.0006  0.0276  0.0382
29510W        W60726  15.758  16.595   2.609  0.0582 -0.0071  0.4943
29511W        W60727   5.945  13.917   9.074  0.0768  0.0596  0.0027
29512W        W60728   5.116   3.088   1.718  0.0305  0.0559  0.0345
29513W        W60729  11.122  22.857   2.249 -0.2664 -0.5674 -0.1596
29514W        W60730  26.424  24.066   9.152  0.1581 -0.1229 -0.0334
29515W        W60731  21.899  15.704   7.765  0.2162  0.0637 -0.1117
29516W        W60732  13.009  17.817   1.075 -0.0481 -0.1012 -0.1631
29517W        W60733   2.137   0.583   9.102  0.1187  0.1106 -0.1661
29518W        W60734   2.770  16.889   9.980 -0.2091  0.1582 -0.2351
29519W        W60735  21.048  23.186   9.660 -0.1176  0.1720  0.0182
29520W        W60736  10.690  21.145   0.469  0.2193  0.2378  0.0052
29521W        W60737  12.734   6.615   9.660 -0.0524  0.0940  0.1183
29522W        W60738  12.669  13.156   1.330  0.2890  0.0304  0.0468
29523W        W60739  15.861  26.993   9.585 -0.1143  0.0706  0.0477
29524W        W60740   5.626  16.740   8.220 -0.1037 -0.0996 -0.1232
29525W        W60741   8.676  25.239   1.631  0.3313 -0.2854  0.0404
29526W        W60742  20.633   2.070  10.082 -0.0722  0.0765 -0.2185
29527W        W60743  17.019  14.657   9.585  0.0981  0.2827  0.2164
29528W        W60744   4.189  19.018   2.966 -0.0544 -0.0412  0.1123
29529W        W60745  20.004   9.520   7.665 -0.0824  0.1215 -0.3981
29530W        W60746   8.473   6.524   0.126 -0.2729 -0.0620 -0.1010
29531W        W60747   0.860  11.930   8.106 -0.0040 -0.0263 -0.1302
29532W        W60748  13.762   0.239   4.153  0.0401  0.0777  0.0135
29533W        W60749   9.437   0.922   7.083  0.2603  0.0196 -0.0632
29534W        W60750  18.829   0.318   8.846 -0.0974 -0.0483  0.4773
29535W        W60751  16.685  21.539   2.836  0.5516  0.0993  0.0069
29536W        W60752   0.591  16.287   0.233  0.0078 -0.3403  0.3193
29537W        W60753  26.850   4.564   3.584 -0.2536 -0.0920  0.1915
29538W        W60754  15.707  21.232   7.788  0.0022 -0.2228  0.1254
29539W        W60755  16.724   2.377   1.482  0.2130 -0.0028  0.0687
29540W        W60756  11.504  14.176   9.450  0.3185 -0.0066 -0.0207
29541W        W60757  10.972   9.032   3.579 -0.1901  0.1133 -0.1658
29542W        W60758   7.792  22.963  10.022  0.0251 -0.0953 -0.2293
29543W        W60759  17.979  15.417   9.350  0.1543 -0.1765  0.2009
29544W        W60760  10.689   9.751   2.756 -0.0785  0.0398  0.3345
29545W        W60761  19.345   2.506   0.745  0.0114  0.0063  0.2125
29546W        W60762  16.286  13.188   1.179 -0.0053  0.0596 -0.2944
29547W        W60763  13.623   2.248  10.269 -0.1430 -0.0245 -0.1761
29548W        W60764  21.728  25.747   8.024  0.0682  0.2059  0.4241
29549W        W60765  19.711  21.764   1.912  0.1408  0.2081 -0.2350
29550W        W60766   1.370   4.233   1.035  0.3033  0.1834  0.1779
29551W        W60767  24.503  18.951   8.529  0.0680 -0.1510  0.1584
29552W        W60768   4.265  25.485   3.114  0.0654 -0.3763 -0.1802
29553W        W60769   4.715   3.276   1.440 -0.0448  0.0358  0.0568
29554W        W60770   5.707   1.351   9.717 -0.0914  0.1036 -0.0534
29555W        W60771   7.291  24.697   9.672  0.1646 -0.0391 -0.2715
29556W        W60772   6.573  23.638   0.670 -0.0167 -0.0114  0.0237
29557W        W60773   2.409  25.745   2.322 -0.0007  0.1300 -0.1302
29558W        W60774  15.862  16.938   0.331  0.2783 -0.2323 -0.3577
29559W        W60775  13.221  22.592   3.123 -0.3107  0.0341  0.1621
29560W        W60776  14.100  21.244   7.774  0.0984 -0.2585  0.1385
29561W        W60777  24.493   1.295   0.974 -0.0196  0.0433  0.2073
29562W        W60778  22.420   2.570  10.163  0.3114 -0.2138 -0.0989
29563W        W60779  20.374  21.184   0.898 -0.1490 -0.1477  0.1871
29564W        W60780  17.926  20.449   3.336  0.2753  0.1892 -0.0629
29565W        W60781  17.153   9.996   7.236 -0.0185  0.1953  0.0004
29566W        W60782   4.601   6.478   9.365 -0.1948  0.0273  0.1442
29567W        W60783   6.778  23.900   0.264 -0.4818  0.0931 -0.0784
29568W        W60784  21.400  10.292   8.309  0.0807  0.2633  0.1189
29569W        W60785  17.059   6.413   0.414  0.1541 -0.1328  0.2236
29570W        W60786   3.506  10.211   8.348  0.2580 -0.0612 -0.0689
29571W        W60787   5.302  19.967   0.821 -0.0433 -0.2226  0.0324
29572W        W60788  23.613   6.994   1.398  0.1144  0.0390  0.1854
29573W        W60789   5.424  18.132   2.595  0.0512 -0.1174 -0.4067
29574W        W60790  22.137  21.028   2.124  0.1076  0.3963 -0.2239
29575W        W60791   3.993  26.548   9.357  0.2450  0.1087  0.2593
29576W        W60792   3.046  14.302   8.823 -0.0151 -0.1142 -0.2329
29577W        W60793  26.711  14.415   9.097  0.1812 -0.0922  0.2053
29578W        W60794  19.144  12.355   9.889 -0.0351  0.1389 -0.4024
29579W        W60795  11.120  18.352  10.512  0.1744 -0.1905 -0.3101
29580W        W60796   2.950  25.784   9.650 -0.0941  0.2354 -0.1740
29581W        W60797  27.301  24.621   9.983  0.0392 -0.2643  0.0533
29582W        W60798  21.291  24.142  10.252  0.0922 -0.4562  0.1813
29583W        W60799   1.069   2.273   2.291 -0.1812  0.0774  0.1472
29584W        W60800  21.472  22.616   3.792 -0.2555 -0.0486 -0.2663
29585W        W60801   9.254   1.398   3.111 -0.0045 -0.0393 -0.3138
29586W        W60802   4.973   5.469   2.600 -0.2239  0.1723 -0.0428
29587W        W60803  13.044  27.095   8.666  0.0623 -0.0047 -0.0048
29588W        W60804  23.723   4.769   3.829 -0.1941 -0.0795 -0.2236
29589W        W60805  16.840  21.136  10.206  0.0071 -0.0320  0.1551
29590W        W60806  14.658  16.847  10.019 -0.0377  0.0594  0.2255
29591W        W60807   9.112  15.745   0.465 -0.0856 -0.1063  0.3168
29592W        W60808  16.672  19.720   0.820 -0.2312 -0.0044  0.1075
29593W        W60809   0.615  24.775   1.751  0.1862  0.2730  0.0559
29594W        W60810  23.975  24.020   4.034  0.5615  0.1753 -0.1108
29595W        W60811  25.065  12.512   2.596  0.0162 -0.0443 -0.0921
29596W        W60812   8.992   1.066   1.551 -0.1980  0.1525 -0.1321
29597W        W60813   0.371  15.276  10.419 -0.0790  0.2758  0.3690
29598W        W60814  10.486  27.016  10.227 -0.1772  0.1214 -0.2150
29599W        W60815   3.742  27.489   4.194  0.1142  0.1199  0.5052
29600W        W60816   4.256  15.807   9.965 -0.5485 -0.3329  0.0775
29601W        W60817  17.245  16.507   3.180 -0.5761  0.0993 -0.0278
29602W        W60818  11.828   0.637   9.161  0.0880  0.2101 -0.1557
29603W        W60819  22.529  25.073   8.799  0.0173  0.1908  0.0814
29604W        W60820  20.635  12.179   9.186  0.0482  0.2055 -0.1326
29605W        W60821  21.019  12.991   0.417 -0.0866  0.0890 -0.1192
29606W        W60822  10.272   1.050   2.503  0.2590  0.5480 -0.1376
29607W        W60823   2.502  17.872   3.703 -0.2115  0.0422  0.0382
29608W        W60824  25.900  22.035   2.809 -0.2485 -0.1602 -0.0389
29609W        W60825  26.176  22.980   1.204  0.0418  0.1158  0.4085
29610W        W60826  10.453   2.564  10.527  0.2174 -0.0070 -0.1159
29611W        W60827  21.164  11.651   1.055 -0.1071  0.1682  0.1049
29612W        W60828  19.187   3.982   9.406 -0.2846 -0.3644  0.1352
29613W        W60829  10.452   3.428   0.287 -0.2708  0.0668 -0.1993
29614W        W60830  13.865  24.769   9.577  0.0331 -0.1328 -0.1163
29615W        W60831  23.644  18.835   7.752  0.0029  0.2798  0.1402
29616W        W60832   9.579   3.132  10.430 -0.0089 -0.1242  0.1690
29617W        W60833   0.283   1.919   8.284 -0.1790 -0.3023 -0.0606
29618W        W60834  24.839   0.114   1.687  0.0546 -0.1252 -0.2469
29619W        W60835  16.369  24.106  10.311 -0.0181 -0.0530 -0.1883
29620W        W60836  16.991   8.211   1.042  0.3470 -0.3549  0.0623
29621W        W60837  20.623  16.299   9.409 -0.0279 -0.0551  0.2368
29622W        W60838  14.966  14.942   0.656 -0.0056 -0.1872  0.1335
29623W        W60839   1.642  25.748  10.341  0.0416 -0.4301 -0.0845
29624W        W60840  18.823   6.285   0.784 -0.0653  0.1465  0.0868
29625W        W60841  25.022   6.862   0.513 -0.1688 -0.0859  0.2546
29626W        W60842   1.370  22.917   7.563  0.1641  0.1223  0.1451
29627W        W60843  14.589   0.648   0.854  0.0283 -0.2199  0.0293
29628W        W60844   0.268  16.252   2.067 -0.3179  0.2580 -0.0697
29629W        W60845   7.382  24.785   0.322  0.1731  0.2403  0.0272
29630W        W60846   4.506   6.357   2.307 -0.2995  0.4406 -0.0326
29631W        W60847   9.342  11.527   3.154  0.0755 -0.0320  0.0461
29632W        W60848   1.078   0.629   1.172  0.0540  0.0962 -0.0480
29633W        W60849  17.991   1.927   2.850 -0.0637  0.0679 -0.2817
29634W        W60850   8.736  24.521   8.237  0.1235 -0.0689 -0.0435
29635W        W60851  22.029  14.487   1.953 -0.0582  0.1114  0.0352
29636W        W60852   8.534   9.508   9.050  0.0846 -0.0618  0.2806
29637W        W60853  21.183   7.729   1.766  0.1176  0.0062  0.0454
29638W        W60854   3.583  13.657   9.993 -0.0258  0.2326 -0.1476
29639W        W60855  25.472  21.077   0.459 -0.1920 -0.2190  0.2639
29640W        W60856  15.697  20.692   3.117  0.1624  0.1222  0.2391
29641W        W60857  17.707  18.923   9.149  0.0689 -0.0215  0.3299
29642W        W60858   9.848  27.309   9.292 -0.3105  0.1575  0.0459
29643W        W60859  12.703  20.248   3.192  0.0403 -0.1179 -0.1213
29644W        W60860  13.589  13.763   2.684  0.0136 -0.1007 -0.0642
29645W        W60861  17.581  13.370   0.607  0.0544 -0.0908 -0.1270
29646W        W60862  15.359  25.441   2.377 -0.0361  0.3547  0.0309
29647W        W60863  13.980  13.127   8.866  0.2067 -0.0946 -0.0384
29648W        W60864  27.466  21.240   2.556  0.4483 -0.0932 -0.1081
29649W        W60865   4.587  24.355   0.902  0.3867  0.0558 -0.0599
29650W        W60866  24.295  13.545   9.263 -0.0085  0.0577  0.0265
29651W        W60867   6.433  10.000   1.251 -0.0340 -0.2124 -0.3395
29652W        W60868  26.661  12.545  10.542 -0.1115  0.1724  0.3643
29653W        W60869  10.948  10.518   9.956 -0.0576 -0.1332  0.3997
29654W        W60870  22.366  17.947  10.175  0.1561 -0.0758  0.2564
29655W        W60871  26.808  26.369   1.878  0.0702  0.2473 -0.2271
29656W        W60872   7.504   3.468   8.595  0.4007 -0.0375  0.0513
29657W        W60873   5.447  26.950   0.088 -0.3639 -0.1166  0.0824
29658W        W60874  12.212  26.057   3.116  0.0669 -0.1633  0.1804
29659W        W60875  18.193  20.649   0.116 -0.2096 -0.3751 -0.2713
29660W        W60876   4.747   5.922   1.456  0.2803 -0.1392  0.0622
29661W        W60877  27.441  19.563   9.159  0.0723  0.0780 -0.3357
29662W        W60878  17.604   2.532   2.750  0.1791  0.0197  0.2602
29663W        W60879   2.063  25.211   9.695 -0.4603 -0.4207 -0.3548
29664W        W60880   2.179  21.155   9.716 -0.2162 -0.4136 -0.1824
29665W        W60881  12.123   1.659   0.207  0.1290  0.0876 -0.0483
29666W        W60882   3.807  16.731   9.785 -0.1798  0.4298  0.1329
29667W        W60883   8.508  17.948   9.557 -0.0106 -0.1678  0.0907
29668W        W60884  25.020   7.425  10.154  0.3553  0.0484 -0.1721
29669W        W60885  23.182  22.815   7.741  0.3225  0.0662  0.1841
29670W        W60886  19.555   1.087   8.973  0.2686 -0.2682 -0.1301
29671W        W60887  19.627   7.365   0.640  0.1832 -0.0964 -0.2110
29672W        W60888  17.683   1.450   3.158  0.0836  0.0720  0.0520
29673W        W60889  11.532   2.122   9.389  0.0366 -0.2688 -0.2658
29674W        W60890  13.092  21.456   2.557  0.0402  0.0596 -0.1016
29675W        W60891  15.581  11.427   8.167 -0.0264  0.0021 -0.2991
29676W        W60892  24.936  22.320   2.393  0.0776  0.2018 -0.0170
29677W        W60893   0.144  13.998   9.374  0.0136 -0.3079  0.1880
29678W        W60894   6.194   6.583   9.673  0.0873  0.0659 -0.0103
29679W        W60895  18.484   4.003   3.356  0.3003 -0.0716 -0.1627
29680W        W60896  27.416  23.100   7.339 -0.1285  0.0145 -0.1251
29681W        W60897  26.342  25.387   8.969 -0.0026 -0.1675  0.0188
29682W        W60898  13.077  13.794   0.918  0.0901 -0.2095  0.0368
29683W        W60899   3.139   7.243   0.706 -0.2365  0.2591  0.0510
29684W        W60900  17.992  24.425   1.361  0.1975 -0.0487 -0.1474
29685W        W60901   4.234   8.339   1.983 -0.3592  0.1995 -0.0378
29686W        W60902  14.715  11.572   7.140 -0.3680 -0.3054  0.2857
29687W        W60903  13.214   8.237   9.733 -0.3125  0.0957  0.0499
29688W        W60904   0.278  10.291   2.630 -0.1318  0.2623 -0.2036
29689W        W60905  27.223  10.560   1.935 -0.0588 -0.0816 -0.2698
29690W        W60906   9.641  18.665   0.975  0.2474  0.0943  0.2366
29691W        W60907   8.683  15.379   3.169 -0.0619  0.0118  0.1624
29692W        W60908  21.395   0.747   2.187 -0.1324  0.1423 -0.3388
29693W        W60909  14.002  24.748   3.825  0.1552 -0.0069 -0.0464
29694W        W60910  12.569  13.259   9.841  0.1013  0.0258  0.0910
29695W        W60911  26.246   3.435   0.939  0.1116 -0.0512 -0.0074
29696W        W60912  13.850   7.551   0.903  0.1712  0.0010 -0.0028
29697W        W60913  21.941  24.493   0.931 -0.1541  0.0734  0.1181
29698W        W60914  16.496   1.806   2.893  0.0135 -0.1303 -0.1529
29699W        W60915   0.629   6.006   1.023  0.5699  0.1922  0.1615
29700W        W60916  23.533   6.469   1.206 -0.2902 -0.3413 -0.0424
29701W        W60917   0.904  14.647   0.848  0.3018  0.0252  0.0993
29702W        W60918   1.406   4.082   9.115  0.3333 -0.3077 -0.4488
29703W        W60919  23.378   4.171  10.275 -0.0221 -0.0074  0.2733
29704W        W60920   7.524  12.073   8.914 -0.2961  0.0364 -0.2599
29705W        W60921  11.664   8.356   8.750 -0.0364  0.0304 -0.3384
29706W        W60922  20.981  21.724   2.227 -0.2208 -0.2126  0.2237
29707W        W60923   8.151  13.173   1.210  0.0723 -0.1135  0.0747
29708W        W60924  19.265  26.284   1.467  0.1102 -0.1526 -0.2475
29709W        W60925  13.978  26.258   2.470 -0.0488 -0.0925  0.0032
29710W        W60926  21.645  13.131   1.475 -0.0075 -0.0693 -0.2266
29711W        W60927   7.212  14.933   9.122  0.0435  0.0492  0.0033
29712W        W60928  19.917  27.383   0.740 -0.2190  0.1874 -0.1675
29713W        W60929   1.972  20.535   2.839  0.3113 -0.4129 -0.1599
29714W        W60930   1.807  11.252   1.842 -0.0410  0.1330 -0.1217
29715W        W60931  15.105  14.619   2.032 -0.3513  0.1399  0.4620
29716W        W60932  13.227   3.646  10.089 -0.0244  0.2395 -0.6445
29717W        W60933  17.277  24.419   9.951  0.2002  0.1751  0.1020
29718W        W60934  23.332  13.394   1.469  0.0535  0.0135 -0.0004
29719W        W60935  14.009   9.173   9.470  0.0276  0.2023 -0.2658
29720W        W60936   4.264   6.977   3.033  0.1847  0.2405 -0.0770
29721W        W60937  26.450  10.694   8.831  0.3986  0.2174  0.0436
29722W        W60938  17.619  18.224   1.290  0.0278  0.1232 -0.1038
29723W        W60939   0.410  20.977   9.163  0.2557  0.0266 -0.1283
29724W        W60940   2.584   1.207   0.818  0.2997 -0.0553 -0.0550
29725W        W60941  26.601   5.102   0.809 -0.3036  0.0834 -0.1141
29726W        W60942   7.789  14.745   9.088 -0.2558 -0.0271 -0.1698
29727W        W60943   1.864   7.568  10.458 -0.1345  0.0718  0.1829
29728W        W60944  12.689  14.517   2.945  0.1518 -0.1392 -0.1583
29729W        W60945  13.448   9.307   1.253  0.3236 -0.0299 -0.0771
29730W        W60946   6.905   7.905   9.109  0.0396  0.0852 -0.1067
29731W        W60947  24.477  18.752   3.167  0.2101  0.3503 -0.1136
29732W        W60948   0.793   9.490   0.320  0.0914 -0.0139 -0.1114
29733W        W60949   1.744  24.653   8.050 -0.2130 -0.2155 -0.0824
29734W        W60950  13.330  27.433   2.362 -0.0555 -0.0957  0.0405
29735W        W60951  16.720   1.853   9.394 -0.0957  0.4742  0.0039
29736W        W60952   7.136  22.194   7.472 -0.1676 -0.1114  0.2371
29737W        W60953  11.284   8.181   2.818 -0.1247 -0.0178  0.0054
29738W        W60954  20.204  22.101   9.828  0.0929  0.0426  0.3009
29739W        W60955  21.262  26.338   1.867  0.2147  0.0374 -0.3050
29740W        W60956   2.079  11.175   0.422  0.2271  0.0104 -0.0753
29741W        W60957  23.406  20.783   2.587 -0.0042 -0.1986 -0.0107
29742W        W60958  14.935  22.614  10.154  0.0836 -0.0547 -0.0740
29743W        W60959   4.200   6.069   1.406 -0.1096 -0.2631 -0.2220
29744W        W60960  12.121   6.860   2.193 -0.1018  0.1867 -0.0064
29745W        W60961  18.604  14.744   1.659  0.0715 -0.1444  0.1171
29746W        W60962   7.982   8.215   0.533 -0.1268  0.0890  0.0506
29747W        W60963   8.645   6.961   0.029 -0.1712  0.2561 -0.0894
29748W        W60964   1.834  17.965   1.433 -0.1242  0.1579  0.0240
29749W        W60965  20.055   5.823   8.024 -0.0172  0.1112  0.0476
29750W        W60966  15.235  22.168   0.316 -0.1820 -0.2499  0.2548
29751W        W60967   9.203  20.432   0.909  0.0874 -0.1294 -0.0199
29752W        W60968  24.471  26.526   0.786 -0.1330  0.0324  0.1512
29753W        W60969   7.128  14.348  10.263 -0.2765 -0.2171 -0.2633
29754W        W60970   2.619  26.526   2.868 -0.2672 -0.1335 -0.0632
29755W        W60971  14.452  24.254   8.952 -0.2476 -0.1852 -0.1256
29756W        W60972   0.944   9.096   2.190 -0.0127 -0.1492 -0.0052
29757W        W60973   9.080   7.871  10.129  0.3409 -0.2026 -0.4959
29758W        W60974  24.687  10.265   9.122 -0.3606  0.0213  0.1047
29759W        W60975  23.250  18.535   9.137 -0.2565 -0.0991 -0.0593
29760W        W60976  17.884  18.606   8.808  0.5305 -0.0977 -0.0392
29761W        W60977  25.846  26.963   9.310 -0.3382  0.2088 -0.2350
29762W        W60978   1.778  23.689   1.954 -0.0231 -0.3524 -0.5099
29763W        W60979   0.924   6.254   9.959 -0.0086  0.1713  0.2162
29764W        W60980   2.421  13.810   1.026 -0.0794 -0.1308  0.0029
29765W        W60981  21.747   4.054   8.548 -0.2360  0.2120  0.0133
29766W        W60982  20.294  25.342   2.216 -0.0651 -0.2940  0.1283
29767W        W60983   7.499   8.500   0.214 -0.1898 -0.2376  0.1605
29768W        W60984  26.575  12.808   9.861 -0.5075  0.2888 -0.2886
29769W        W60985  23.097  23.335  10.453 -0.3142 -0.1904  0.0047
29770W        W60986  15.468  14.706   1.055  0.2134 -0.2023  0.0242
29771W        W60987   5.581  17.963   0.024  0.1348 -0.1591 -0.0294
29772W        W60988  23.998   1.566   7.601  0.1911  0.0183  0.0834
29773W        W60989  19.803  26.071   2.490 -0.2398  0.3661 -0.0466
29774W        W60990  27.464   6.084   1.108  0.3066  0.1854  0.2050
29775W        W60991   0.232  22.231   0.496 -0.0247  0.2612 -0.1708
29776W        W60992  20.325   8.770   1.092 -0.1984  0.1302  0.0283
29777W        W60993   6.507  21.838   0.798 -0.0850  0.0436 -0.1464
29778W        W60994   4.308  17.814   8.451  0.0631 -0.4086  0.1463
29779W        W60995  15.143   5.489   0.742 -0.0079  0.2995  0.1142
29780W        W60996  25.308  10.820   7.659  0.2000 -0.4536  0.0906
29781W        W60997  22.763   0.467   3.545 -0.0532  0.0786 -0.2138
29782W        W60998   9.155  25.497   2.806 -0.0511  0.2599 -0.2669
29783W        W60999  10.190  20.160   2.655  0.0268  0.0465 -0.0217
29784W        W61000  16.627  25.934   1.106  0.0244 -0.0302 -0.3907
29785W        W61001   3.755  18.114   2.019 -0.1705  0.0607  0.1851
29786W        W61002   5.206   9.287  10.214 -0.2335 -0.2112  0.3627
29787W        W61003  18.170  11.124   8.636 -0.1431 -0.2378 -0.0351
29788W        W61004  19.163  22.036   1.801 -0.3324  0.0660 -0.0826
29789W        W61005  11.842  14.803   1.812 -0.0734 -0.0808  0.0191
29790W        W61006   8.926   6.302  10.423 -0.0256  0.2865  0.1167
29791W        W61007  21.620   1.788   8.852  0.1054 -0.0690 -0.2905
29792W        W61008  22.585   9.632   1.387  0.0327  0.1005 -0.4318
29793W        W61009   6.702  15.810   0.623 -0.0381  0.0127 -0.1376
29794W        W61010  23.522   5.306   0.508  0.0236 -0.0940 -0.0500
29795W        W61011  13.625  11.994   8.001  0.1311 -0.1569 -0.1338
29796W        W61012  15.318  24.918   2.421 -0.0623  0.1249 -0.0352
29797W        W61013   8.965   0.668   1.930  0.0241 -0.0158 -0.1626
29798W        W61014   9.935   0.938   9.206  0.0732 -0.0290  0.0386
29799W        W61015  21.659  19.576   2.049  0.0678 -0.1008  0.0663
29800W        W61016  10.114   5.854   8.338 -0.1229  0.1466 -0.0583
29801W        W61017  25.186  18.095   2.283 -0.0702  0.1758  0.1262
29802W        W61018   8.669  19.629   1.246 -0.2568  0.0790  0.3083
29803W        W61019   7.798  20.139   0.972  0.0924  0.3510  0.1056
29804W        W61020  13.497  13.657   9.494 -0.2127  0.0811  0.1046
29805W        W61021  20.814  17.035   2.079 -0.0224 -0.2036 -0.2546
29806W        W61022  25.296   4.893   2.202 -0.0225 -0.1285  0.0232
29807W        W61023  16.087  21.795   2.181 -0.2673  0.1383 -0.0081
29808W        W61024  10.810  18.270   9.667  0.2241  0.1407 -0.0629
29809W        W61025   9.684  11.094   8.827  0.2318 -0.2990 -0.1358
29810W        W61026   0.057  15.053   0.728  0.0484 -0.2043  0.1471
29811W        W61027  22.403  13.102   9.759  0.2440  0.1914 -0.0230
29812W        W61028  24.690  27.556   9.862 -0.2075 -0.1906 -0.1709
29813W        W61029   6.355  22.779   0.732 -0.2015  0.1521  0.1575
29814W        W61030  12.927   6.082   8.383  0.2367 -0.0097 -0.2981
29815W        W61031  18.260  10.480   8.694 -0.0974 -0.4753 -0.2177
29816W        W61032  27.023  24.322  10.232  0.1642  0.3887  0.2073
29817W        W61033  21.542  17.395   8.264  0.1658 -0.2846  0.2462
29818W        W61034   3.805  23.600   3.371  0.1537  0.0201  0.1901
29819W        W61035   9.502  15.631   3.260  0.2014  0.0192  0.0640
29820W        W61036  22.576  14.707   8.292 -0.1169  0.0326 -0.0358
29821W        W61037   4.192  21.083   2.925  0.0130 -0.1567  0.2054
29822W        W61038  20.345   9.848   0.781  0.0788  0.0139 -0.3123
29823W        W61039  17.288  17.744   8.681 -0.1029 -0.0904  0.0157
29824W        W61040  21.760  14.500   7.326  0.3794 -0.0805  0.4385
29825W        W61041  19.235  12.768   9.537 -0.1510 -0.1659 -0.2014
29826W        W61042  13.773  18.673   2.170  0.1303 -0.0510 -0.2265
29827W        W61043  26.859  18.732  10.127  0.2289  0.3031 -0.1234
29828W        W61044  15.369   2.604   8.101  0.0167 -0.0290  0.0099
29829W        W61045  23.802   2.537   0.505  0.1937 -0.1012  0.0460
29830W        W61046   9.733  11.361   9.528  0.2986  0.0090 -0.2466
29831W        W61047   3.303  25.584  10.395  0.2302 -0.0202  0.1236
29832W        W61048   9.895  14.783  10.162  0.0341 -0.0963 -0.1036
29833W        W61049  23.057   4.807   1.799 -0.2017  0.0504  0.0720
29834W        W61050  19.417   6.368   9.999 -0.0518  0.1762  0.1792
29835W        W61051  18.734  22.026   2.697 -0.2727  0.1022  0.0229
29836W        W61052  27.025   6.988  10.490  0.1209  0.0098 -0.1527
29837W        W61053  20.254   1.490  10.238  0.1114  0.1656 -0.2645
29838W        W61054  24.556   4.080   0.213  0.2407 -0.0516  0.1338
29839W        W61055  20.382   6.271   3.075 -0.1765 -0.0503  0.1118
29840W        W61056  24.907  15.490   3.439  0.1645  0.0114  0.2313
29841W        W61057  20.322   4.262   2.352  0.1247 -0.2529 -0.0100
29842W        W61058  21.273   3.984   1.363  0.2122  0.0953 -0.2113
29843W        W61059  26.568  17.045   3.699 -0.0504 -0.0247  0.0987
29844W        W61060  22.186   1.119   9.409  0.3450 -0.0331  0.0501
29845W        W61061  26.884  19.974   8.207  0.1775 -0.0258 -0.1213
29846W        W61062   8.808  17.626   2.212  0.0406 -0.0157  0.1281
29847W        W61063  17.126  27.316   9.875  0.1117  0.3174 -0.4717
29848W        W61064  12.728   7.430  10.473 -0.2924 -0.0783  0.3229
29849W        W61065  15.557  26.644   9.965 -0.2030  0.1838 -0.2088
29850W        W61066  21.578  19.552   8.962 -0.1304 -0.0808  0.4172
29851W        W61067  17.504  24.903   3.886  0.1147 -0.2994  0.1136
29852W        W61068  27.268   8.314   0.107  0.1099  0.1901  0.3142
29853W        W61069  26.114  19.101   0.742  0.1728  0.2946  0.0512
29854W        W61070  24.634  20.437   2.340 -0.2608 -0.0606  0.0977
29855W        W61071  21.013  19.914   2.784 -0.0839 -0.1263  0.0590
29856W        W61072  25.886  14.980   8.077  0.0720  0.0309 -0.1412
29857W        W61073  26.731  11.733   8.120 -0.0239  0.0767 -0.2133
29858W        W61074  15.741   3.068   3.207 -0.2356 -0.0835 -0.0314
29859W        W61075   4.850   8.103  10.106  0.0245 -0.4329 -0.0442
29860W        W61076  24.448  11.993   8.857  0.3106  0.2304 -0.1524
29861W        W61077   8.849  22.147   8.233 -0.0279  0.0818 -0.3070
29862W        W61078  25.265  22.342   2.930  0.0753 -0.0740  0.2287
29863W        W61079  24.284  26.048  10.500  0.1066  0.2795 -0.1830
29864W        W61080  22.291  12.611   9.961  0.1324 -0.2655 -0.0867
29865W        W61081  24.138  25.383   7.204  0.2057 -0.1742 -0.0292
29866W        W61082  11.836   5.792   7.392  0.0493  0.0225  0.0365
29867W        W61083  22.829   3.565   2.718  0.3007 -0.0308  0.1403
29868W        W61084  24.861  17.370   9.811  0.0162 -0.0427 -0.0571
29869W        W61085  24.104  18.556   7.763  0.2834  0.0945  0.2165
29870W        W61086   9.138   8.364   1.458 -0.0220 -0.2954  0.1467
29871W        W61087   1.655  25.374   8.984  0.2247  0.2715  0.0515
29872W        W61088  16.880   9.419   0.430 -0.1937  0.0470 -0.1756
29873W        W61089  11.138   6.724   0.321  0.1414  0.1241 -0.0225
29874W        W61090   2.561   2.044   1.449  0.1411  0.2785  0.1768
29875W        W61091   7.982  19.475   8.311 -0.0187 -0.0531 -0.0050
29876W        W61092  25.075  17.435   0.997 -0.1152 -0.1779  0.1668
29877W        W61093  12.046   1.635   8.798  0.0056 -0.1397  0.1239
29878W        W61094   0.853  21.022   8.946 -0.0115 -0.1288 -0.2718
29879W        W61095  11.749   4.717  10.008 -0.2957 -0.0436 -0.2970
29880W        W61096  13.332  18.034   1.407 -0.0321  0.0156  0.4055
29881W        W61097  25.809  11.723   9.948  0.3113  0.0708 -0.0436
29882W        W61098  20.683   6.608   0.834 -0.1441  0.2157  0.1220
29883W        W61099  18.272  16.230  10.004  0.0847 -0.0309  0.1048
29884W        W61100   7.682  11.430   7.842  0.0345  0.0283  0.0776
29885W        W61101  13.059   7.620   8.770  0.0847  0.2402 -0.0928
29886W        W61102   6.535  13.208  10.280 -0.2440 -0.0544  0.1590
29887W        W61103   7.300  24.506   1.820 -0.0020 -0.1330 -0.2307
29888W        W61104   4.426   3.719   3.450  0.1102 -0.0246  0.1545
29889W        W61105   6.645   9.072   8.624 -0.2193  0.1703  0.1028
29890W        W61106  16.302   0.215   1.197 -0.2230  0.0656  0.0221
29891W        W61107  10.444   0.894   1.405 -0.0504 -0.3271  0.0719
29892W        W61108   2.189  23.144   1.771 -0.3905 -0.0348 -0.1351
29893W        W61109  24.462  27.309  10.193 -0.1874 -0.0051 -0.1695
29894W        W61110   6.777  13.066   7.141  0.2251 -0.2085  0.0138
29895W        W61111   0.824  17.160   3.468 -0.0036  0.1357  0.1668
29896W        W61112  23.518   2.685   8.069  0.0317  0.0580  0.0465
29897W        W61113  16.068  23.184   2.368 -0.5115 -0.0909  0.0965
29898W        W61114   4.646   7.985   7.941  0.1785  0.0817  0.1857
29899W        W61115  21.844  14.212   6.713 -0.1805 -0.2939  0.2183
29900W        W61116   9.668  22.467   1.706 -0.2331 -0.3613  0.0664
29901W        W61117  23.044   4.954   2.733  0.1686 -0.1255 -0.0335
29902W        W61118  11.984  13.773   9.184 -0.1992  0.1463  0.0574
29903W        W61119   6.097  20.984   7.697  0.1028  0.1484  0.1069
29904W        W61120   3.354  22.211   2.618  0.1236 -0.1976 -0.0794
29905W        W61121  20.889  17.572  10.243  0.0248 -0.2935  0.0782
29906W        W61122   2.300  24.805   9.466  0.3034  0.0898 -0.1502
29907W        W61123  18.648   2.912   3.888 -0.1642 -0.0294 -0.2584
29908W        W61124  26.796  16.786   9.952  0.2938 -0.1011  0.0564
29909W        W61125   9.655   9.107   8.561  0.3587 -0.0179 -0.4487
29910W        W61126  18.242   6.399  10.081  0.3035  0.0134 -0.0258
29911W        W61127   7.218   7.259   8.622 -0.2684 -0.0545 -0.1967
29912W        W61128   0.171  15.606  10.064 -0.0557 -0.1918 -0.0877
29913W        W61129  12.110  20.408   3.273 -0.1726  0.1939  0.1655
29914W        W61130  11.330  13.092   7.782  0.1507  0.0973  0.2381
29915W        W61131   9.108   4.653   1.912 -0.1604  0.3218 -0.2511
29916W        W61132  12.888  21.892  10.294 -0.0988  0.0770 -0.2108
29917W        W61133  15.199  27.610   8.882  0.5469 -0.0797 -0.0387
29918W        W61134  24.268  23.440   1.826  0.0108 -0.2216 -0.0389
29919W        W61135  14.780   7.395   9.436  0.2885 -0.2261  0.1778
29920W        W61136  24.194  26.861  10.039 -0.0298  0.2105  0.1107
29921W        W61137  18.112  16.578   3.111 -0.1762 -0.1226  0.1074
29922W        W61138   4.949  26.778   8.795  0.1875 -0.0551 -0.5888
29923W        W61139  24.602  12.806   2.046 -0.1050 -0.1750  0.1425
29924W        W61140  16.348  14.040   8.741  0.1526  0.0553  0.0176
29925W        W61141  18.120  20.224   0.292  0.1315 -0.1275 -0.0051
29926W        W61142  19.152  13.333   8.590 -0.1011  0.1387 -0.0543
29927W        W61143  27.510  18.440   8.808  0.1058  0.3697 -0.0739
29928W        W61144  14.214  26.475   0.217  0.1026 -0.0297  0.3401
29929W        W61145  21.244  15.798   0.615 -0.3782 -0.0738 -0.1721
29930W        W61146   0.205  26.307   7.619 -0.1313  0.1285 -0.0700
29931W        W61147  14.350  26.545   3.777  0.1029 -0.0891  0.3601
29932W        W61148  27.055  21.881   8.005 -0.0217 -0.1032  0.2001
29933W        W61149   1.825  13.964   2.425  0.2368 -0.2513 -0.0506
29934W        W61150   8.046  16.688   8.381  0.0201 -0.0040 -0.0722
29935W        W61151  19.706  19.231   9.421  0.1409 -0.0930 -0.2454
29936W        W61152   6.342   2.382   1.440  0.0767  0.0452 -0.1660
29937W        W61153  11.521  22.690   8.121  0.0545 -0.1408  0.0852
29938W        W61154   1.271  13.744   2.816  0.0277  0.3412  0.2998
29939W        W61155  19.956  22.122   8.972  0.0063  0.0693 -0.1517
29940W        W61156  14.370   4.982   0.711  0.2419  0.3320  0.2206
29941W        W61157   9.869  16.245   9.101 -0.1085  0.0632  0.1082
29942W        W61158   7.242   8.121   2.387 -0.0181 -0.0866 -0.0130
29943W        W61159   7.674  12.658   1.658 -0.0646  0.0337 -0.1530
29944W        W61160   4.020  25.848   8.713 -0.0794  0.0176  0.3289
29945W        W61161  24.053   5.812   1.727  0.3340  0.5254  0.2557
29946W        W61162   9.812  10.573   9.020 -0.1733  0.1077 -0.1183
29947W        W61163   5.601   7.932   8.902  0.1883 -0.3182 -0.0681
29948W        W61164   4.068  21.683   1.015  0.0078 -0.3048  0.0995
29949W        W61165   3.867  20.145   1.931  0.0998 -0.0602  0.1412
29950W        W61166   5.944   3.806  10.429 -0.0542  0.1230  0.3115
29951W        W61167  13.487  18.522   9.940  0.2670  0.1021 -0.1757
29952W        W61168  18.240  22.764   0.738  0.4177 -0.0502  0.1159
29953W        W61169   6.625  10.862   1.057 -0.0246 -0.2282 -0.1452
29954W        W61170  10.491  26.309   3.233  0.3761 -0.0554 -0.0122
29955W        W61171  20.497  10.135   1.793 -0.2166 -0.3459  0.2650
29956W        W61172  19.355  10.989   8.581  0.4113  0.2476 -0.2320
29957W        W61173   9.161   1.913   0.360 -0.3017 -0.1928  0.3218
29958W        W61174   6.018   9.272   0.987  0.1912 -0.2652  0.0986
29959W        W61175   8.034  11.412   1.056  0.2686  0.0758 -0.0068
29960W        W61176   3.246  24.149   0.853  0.0209 -0.0196 -0.0556
29961W        W61177  10.073  20.949   7.747  0.2210 -0.0430 -0.2587
29962W        W61178   1.772  16.527   2.967  0.1019  0.0244  0.1418
29963W        W61179   6.888  14.577   2.596 -0.1845 -0.1688  0.3641
29964W        W61180  17.931   1.114   8.952 -0.0164 -0.1313  0.2897
29965W        W61181   6.394  25.922   0.974 -0.1469  0.3055 -0.1247
29966W        W61182   0.942   6.010   9.268  0.0423 -0.0285 -0.1435
29967W        W61183  22.884  18.934   2.908 -0.4238  0.0799  0.1768
29968W        W61184   6.330   4.214   0.658 -0.0002  0.4771 -0.0054
29969W        W61185  12.004   6.688   0.830 -0.2590  0.2924  0.1074
29970W        W61186  24.994   8.699   8.999  0.2221 -0.1114 -0.0330
29971W        W61187   7.961   1.852   9.614  0.1594  0.0097  0.1981
29972W        W61188   4.673   7.488   0.519  0.1050  0.2887  0.1367
29973W        W61189   4.835  21.646   1.449  0.1145 -0.0636  0.1528
29974W        W61190  26.961  25.024   1.875 -0.2036  0.0250  0.3543
29975W        W61191  13.957   4.477   8.539 -0.0003 -0.0355  0.5768
29976W        W61192  21.565  19.922   2.842  0.2836 -0.2593  0.0469
29977W        W61193   9.418  18.930   1.273  0.0403 -0.1299 -0.3882
29978W        W61194   9.263   1.637   7.170 -0.0127 -0.2322 -0.1464
29979W        W61195  11.254   0.979  10.273  0.1922  0.1691 -0.2189
29980W        W61196   0.466  15.269   2.919  0.2700 -0.0823 -0.0356
29981W        W61197  11.127   8.110  10.387  0.0695 -0.1296 -0.1819
29982W        W61198  20.814  18.821   8.936  0.1088 -0.2548  0.3013
29983W        W61199   8.787  10.433   0.847 -0.2208 -0.0511  0.1039
29984W        W61200  19.672  27.135   8.957  0.0643  0.0819  0.2302
29985W        W61201   3.233  14.498   2.023 -0.1658  0.1511  0.2505
29986W        W61202   4.774  22.549   8.097  0.2411  0.0243 -0.2051
29987W        W61203   8.148  18.231   8.938  0.1272  0.3341 -0.0954
29988W        W61204  14.756   4.100   1.433  0.2618 -0.0561 -0.0288
29989W        W61205  10.315   5.879  10.052  0.2271 -0.1489 -0.0051
29990W        W61206   9.872   9.669   7.471  0.0985  0.0015  0.0468
29991W        W61207  16.599   3.360   9.105 -0.3077 -0.0594 -0.0204
29992W        W61208  25.208  18.325   0.269 -0.3461  0.0024  0.5465
29993W        W61209   6.309   5.432   2.569  0.0814  0.0913 -0.3945
29994W        W61210   0.059  13.449   1.312 -0.2322  0.1093 -0.1333
29995W        W61211  23.024  18.308   8.496 -0.1341 -0.1913  0.0518
29996W        W61212  10.340   8.310   8.973 -0.1795  0.0191  0.2483
29997W        W61213   6.700   7.761   2.880 -0.3650  0.0677  0.0856
29998W        W61214  12.898  22.951   0.015 -0.1758  0.0376  0.0767
29999W        W61215   1.422  14.516   7.677 -0.2040 -0.0653  0.2212
30000W        W61216  14.968  17.492   1.944 -0.0508  0.0427  0.0876
30001W        W61217  14.950  24.867   1.844  0.1339 -0.2544 -0.3218
30002W        W61218   9.282  16.389   9.522  0.1957 -0.2506  0.0516
30003W        W61219  18.651   4.671   2.115  0.1281  0.0929  0.1884
30004W        W61220  20.027   7.106   7.515 -0.2879  0.0945  0.3076
30005W        W61221  15.902  23.245   0.795 -0.3301 -0.1045 -0.1190
30006W        W61222   7.574   9.337   8.738  0.1758 -0.1465 -0.3251
30007W        W61223   1.152  11.181   1.199  0.2882  0.0433  0.0901
30008W        W61224  26.821  18.881   0.869  0.1634 -0.2393 -0.2221
30009W        W61225  15.688  20.210   3.206  0.2790  0.1793 -0.1410
30010W        W61226   5.994   5.042   0.803 -0.4819 -0.1833 -0.1236
30011W        W61227  18.885  20.633  10.426  0.1794  0.4787  0.1594
30012W        W61228  21.873  16.221   7.672  0.0213  0.0676  0.0452
30013W        W61229  14.752   1.117   0.126  0.0531 -0.2144 -0.1302
30014W        W61230   7.424  21.546   8.123  0.0683  0.0110  0.0464
30015W        W61231   4.868  14.006   2.903  0.2178  0.0674 -0.3117
30016W        W61232   7.014  26.622   7.864  0.0181 -0.3480 -0.1701
30017W        W61233   2.500   4.524   1.853  0.3168  0.0386 -0.0261
30018W        W61234  11.052  11.571   0.735  0.1490  0.1304  0.0274
30019W        W61235  11.755   0.999   0.072  0.1245 -0.0764  0.5592
30020W        W61236  16.849   8.297   9.406 -0.1145 -0.1865 -0.0690
30021W        W61237  15.427  13.756   8.986  0.1711 -0.0078  0.1163
30022W        W61238  20.352  13.396   9.341 -0.0554  0.2834  0.0221
30023W        W61239  11.383   2.337   8.965 -0.0192 -0.1615  0.1167
30024W        W61240  20.969  25.360   0.533 -0.0262  0.2310  0.0557
30025W        W61241  23.020   9.422   1.269  0.1316 -0.2810  0.0964
30026W        W61242   0.225   4.311   1.306  0.3884  0.2285 -0.2727
30027W        W61243  10.062  27.464   2.233  0.0836 -0.0541  0.2907
30028W        W61244   3.400  10.283   2.417 -0.2581  0.2807 -0.0586
30029W        W61245  25.953  24.778  10.122 -0.0547 -0.1249 -0.1639
30030W        W61246  22.945  16.155   0.074 -0.1434  0.2303 -0.0070
30031W        W61247  16.863   8.815   1.871 -0.0131 -0.1848  0.4505
30032W        W61248  11.163  11.554   0.231 -0.3097 -0.1143 -0.1366
30033W        W61249  26.895  26.547   1.040 -0.1158  0.1467 -0.3279
30034W        W61250   4.809   1.874   0.814  0.0772 -0.0662  0.0453
30035W        W61251   6.132   5.877   9.015 -0.1113 -0.0449 -0.0716
30036W        W61252  25.939   5.603   0.297 -0.2123 -0.0160 -0.1883
30037W        W61253  20.076   6.995   9.608 -0.0700 -0.0292 -0.2791
30038W        W61254   2.516   4.853   2.195  0.0149 -0.0858  0.1800
30039W        W61255   7.915   3.552   8.372  0.0344 -0.1425 -0.2557
30040W        W61256   7.845  12.450   7.319 -0.2459 -0.0414 -0.0140
30041W        W61257  16.081  15.502   1.494 -0.0467 -0.0536 -0.0844
30042W        W61258  12.132  10.511   9.162 -0.0738 -0.0547  0.1101
30043W        W61259  12.810   0.054   3.524  0.1028  0.1481  0.0384
30044W        W61260  14.260  21.512   8.630  0.0890  0.1851  0.0587
30045W        W61261  23.848  22.867   8.742 -0.0629  0.0933  0.2622
30046W        W61262  13.908  13.124   3.455 -0.0787  0.0473  0.3853
30047W        W61263  19.081  18.624   3.433 -0.1860  0.0691 -0.0340
30048W        W61264   2.266  15.270   2.872 -0.1120 -0.3050  0.1816
30049W        W61265  15.650  21.425   9.826 -0.0810 -0.1334  0.1236
30050W        W61266   1.422  18.120   2.157 -0.0198 -0.3194  0.0060
30051W        W61267  19.449   3.255   2.605 -0.2673 -0.2867  0.1281
30052W        W61268   3.162  22.248   3.161  0.1756  0.2842 -0.0269
30053W        W61269   1.260   6.193   2.603  0.3132 -0.0230  0.2956
30054W        W61270   0.818  25.906   3.127  0.0903 -0.3147 -0.0720
30055W        W61271  25.523   0.228   2.753 -0.1190  0.4111 -0.0108
30056W        W61272  15.336  17.380   0.585 -0.0758 -0.1605  0.1099
30057W        W61273  21.170  26.920   3.324 -0.2617  0.1829  0.2731
30058W        W61274  19.650  24.309   8.148  0.1440  0.2733 -0.1950
30059W        W61275   6.946  12.835   8.937 -0.3237 -0.2926  0.2194
30060W        W61276   2.426  19.816  10.387 -0.0961  0.2970  0.0191
30061W        W61277  18.636  20.371   0.311  0.2661  0.1863 -0.1346
30062W        W61278   3.188  26.115  10.030  0.2502  0.1671  0.0410
30063W        W61279  13.809  19.027   1.077 -0.2686  0.1326  0.2040
30064W        W61280  20.867   8.971   0.456 -0.2372  0.1635  0.2045
30065W        W61281  14.041  14.478   9.309  0.0761  0.1154  0.3140
30066W        W61282  15.816  19.612   1.215 -0.0731 -0.1567 -0.0140
30067W        W61283  14.679  20.533   9.147  0.1472 -0.1220  0.0565
30068W        W61284  24.944  12.244   0.385 -0.0750  0.2592 -0.1665
30069W        W61285  14.324   7.325   0.831 -0.0778 -0.1884 -0.0254
30070W        W61286  11.947  14.451   8.615  0.1257 -0.0847  0.3009
30071W        W61287   4.857  15.831  10.292  0.2460  0.0241  0.3946
30072W        W61288  16.244   7.209   0.401  0.0376 -0.1945 -0.0731
30073W        W61289  11.546  11.414   0.566  0.2722  0.0721 -0.0032
30074W        W61290  24.053   8.619   1.661  0.1276 -0.2439 -0.1370
30075W        W61291  17.498   0.623   2.491 -0.5167  0.0816 -0.3423
30076W        W61292   4.058   8.021   2.712 -0.0198  0.0199 -0.0524
30077W        W61293  11.846  13.421   2.409  0.0649 -0.3611  0.1794
30078W        W61294  10.311  12.406   0.810  0.0282 -0.2331  0.2163
30079W        W61295   5.871  21.555   2.388 -0.2567 -0.3504 -0.0483
30080W        W61296  11.669  16.966   9.231 -0.1146 -0.1870  0.1070
30081W        W61297  13.829   5.248   0.104  0.0835  0.1608  0.0607
30082W        W61298   7.646  16.435   2.633 -0.0339  0.0422 -0.1254
30083W        W61299  16.682   7.511  10.001 -0.1647 -0.0434  0.2599
30084W        W61300  23.013   9.552   9.374  0.1611  0.0517  0.0523
30085W        W61301  10.282  15.222  10.476 -0.1484  0.0768  0.0847
30086W        W61302   0.928   5.447   9.415  0.3138  0.3357  0.0484
30087W        W61303  27.367   9.543   2.210  0.0808  0.1913 -0.0082
30088W        W61304  20.595  19.462   2.836 -0.0405 -0.1946  0.0702
30089W        W61305  15.518   5.753   7.913  0.0904  0.3876 -0.0761
30090W        W61306  15.364  11.894   0.080 -0.0700  0.1591  0.2701
30091W        W61307  12.684   9.268   9.337 -0.0484  0.4190  0.3478
30092W        W61308  21.422  25.903   2.202  0.2455  0.2705  0.0050
30093W        W61309  23.612  11.448   9.344  0.0090  0.1497 -0.0866
30094W        W61310  24.459   1.221   8.907  0.0780  0.2427  0.3110
30095W        W61311  23.716  19.645   9.437 -0.1175 -0.0891  0.2223
30096W        W61312  12.713   5.021   1.732 -0.0754  0.0286 -0.0729
30097W        W61313  22.515   0.088   2.554 -0.0581  0.0911  0.1116
30098W        W61314  18.793   9.604   1.092 -0.0329  0.0051  0.2896
30099W        W61315   2.440  18.422   8.706  0.0542 -0.1297  0.0094
30100W        W61316  22.200  14.645   7.979 -0.0558  0.1057  0.3929
30101W        W61317  17.103  17.483   9.085 -0.1836 -0.1732 -0.0313
30102W        W61318   8.594  18.795   1.414  0.0297  0.0408 -0.2213
30103W        W61319   2.821  16.937   1.962 -0.1232 -0.0395  0.0089
30104W        W61320  19.224  27.507   9.577  0.1066 -0.2647  0.2397
30105W        W61321   7.850  19.748   2.124 -0.3061 -0.0097 -0.0555
30106W        W61322   2.028   4.746  10.114 -0.0361  0.2676  0.0290
30107W        W61323   3.468  19.425   0.885 -0.0584 -0.0077  0.2805
30108W        W61324  18.461  16.510   8.403  0.0984  0.1053  0.3286
30109W        W61325  13.069  10.874   1.949 -0.1199 -0.3322 -0.0133
30110W        W61326   7.384  14.292   8.943 -0.0847  0.1428 -0.2121
30111W        W61327   7.647  15.019   0.275  0.1797  0.1031 -0.0080
30112W        W61328  14.086   5.827   9.961  0.0139 -0.2002 -0.0154
30113W        W61329  12.670  14.742   9.602 -0.0217 -0.1322 -0.0268
30114W        W61330   7.864  18.398   8.573 -0.3753  0.0952  0.2087
30115W        W61331   4.034   2.056   1.823 -0.1212 -0.1346  0.0246
30116W        W61332   6.545  18.431   7.814 -0.3456  0.1280 -0.0554
30117W        W61333  10.121   5.424   8.121 -0.1519 -0.0224 -0.2364
30118W        W61334  11.924   1.717   9.325 -0.1552  0.1755  0.2559
30119W        W61335  23.232  23.382   7.825 -0.1621  0.0591  0.1450
30120W        W61336  14.339  16.731  10.475  0.1913 -0.0444 -0.2548
30121W        W61337  24.042  12.286   3.378 -0.0900  0.0597  0.1283
30122W        W61338  12.142   1.412   2.667  0.0862 -0.0724 -0.0924
30123W        W61339  21.371  10.392   0.288  0.1185  0.2533 -0.1615
30124W        W61340   2.017  23.689  10.414 -0.1259  0.2736 -0.2595
30125W        W61341  17.392   4.344   0.708 -0.1517  0.0696  0.1840
30126W        W61342  24.420  10.596   9.375  0.3258  0.0102  0.2886
30127W        W61343  19.674  24.714   8.477  0.0152  0.1367 -0.2242
30128W        W61344   8.029   1.293   1.370 -0.0757 -0.2093  0.0998
30129W        W61345  12.360   2.321   9.078  0.3348  0.0221  0.2493
30130W        W61346   8.520  22.371   9.716  0.1873  0.0460  0.0476
30131W        W61347   6.938  13.640   2.573 -0.1139  0.1498 -0.1507
30132W        W61348   6.387  14.095   0.919 -0.2952  0.0499  0.0960
30133W        W61349   5.171  27.373   2.627 -0.2665 -0.0888 -0.0631
30134W        W61350  12.751   5.582   3.293 -0.1833 -0.4536  0.0134
30135W        W61351   1.380  25.347   7.734  0.2881  0.0360 -0.0981
30136W        W61352  18.600  18.924   9.082 -0.0210 -0.1502 -0.0485
30137W        W61353   3.611   0.900   0.556 -0.1812  0.1186 -0.0352
30138W        W61354  13.712  13.597   9.949 -0.1947 -0.1327 -0.2311
30139W        W61355  24.870  12.864   3.487  0.2611 -0.1764  0.2704
30140W        W61356  18.945  10.305   9.084 -0.1282 -0.3544  0.0357
30141W        W61357  25.894  19.116   0.102  0.1273  0.1707  0.1806
30142W        W61358   6.362   7.121   7.620 -0.1506 -0.1323  0.5699
30143W        W61359  13.075   7.629   9.392  0.0513 -0.3478 -0.1841
30144W        W61360  27.055   1.928   1.662  0.0215 -0.1753 -0.0899
30145W        W61361   6.584  24.528   1.067  0.1397  0.0109  0.1333
30146W        W61362  14.188  12.175   3.335 -0.0675  0.2519 -0.1001
30147W        W61363  17.770  27.007   0.639  0.0570  0.0649  0.4251
30148W        W61364   3.928   7.764   1.115 -0.0037 -0.0112 -0.1142
30149W        W61365  13.800   1.984   9.077  0.0492 -0.0287  0.0546
30150W        W61366  27.310  10.132   3.926 -0.0760 -0.1071 -0.0063
30151W        W61367   6.285  14.484   0.029 -0.1116 -0.2011 -0.1870
30152W        W61368  23.274  10.884   1.188 -0.1915 -0.2153 -0.0520
30153W        W61369   8.774   1.673   9.470  0.2105  0.0056 -0.0241
30154W        W61370  23.170  20.033  10.073 -0.0910 -0.0754 -0.1157
30155W        W61371   0.748  16.346   0.998  0.2708  0.0729 -0.3576
30156W        W61372  16.430  17.152   7.687 -0.2128 -0.2314  0.1501
30157W        W61373   2.323  12.923   8.536 -0.0616  0.1239  0.1127
30158W        W61374   7.784  26.667   0.148 -0.0324 -0.2590 -0.2102
30159W        W61375  18.283  23.898   9.178  0.0729 -0.2962  0.1787
30160W        W61376   7.521   8.600   8.781 -0.0435  0.2119  0.1412
30161W        W61377   9.284   6.623   8.718  0.0426  0.2017 -0.4099
30162W        W61378   7.200  17.215   0.133 -0.0147 -0.4974  0.2917
30163W        W61379   5.109  12.425   0.267 -0.0881 -0.1675 -0.1458
30164W        W61380   6.967  18.527   2.188  0.0731 -0.2713  0.0142
30165W        W61381  11.773   8.902   0.822 -0.0787 -0.1227  0.1382
30166W        W61382  18.358   9.822   9.867 -0.0692  0.1040  0.0318
30167W        W61383   8.248   3.819  10.528 -0.0006  0.0318  0.1674
30168W        W61384  12.472  23.788   7.532  0.0880 -0.3803 -0.2163
30169W        W61385  25.032  24.534   0.477  0.2204 -0.2766  0.0601
30170W        W61386   2.811  13.487   7.537 -0.0723 -0.3443  0.2395
30171W        W61387   2.990  26.581   0.840  0.2175 -0.1062 -0.1696
30172W        W61388   1.636  22.495   3.307 -0.0677 -0.2360  0.0580
30173W        W61389   4.268  20.704   2.589 -0.1953  0.2915  0.1275
30174W        W61390   8.107  21.957   0.883 -0.2472  0.3513 -0.1577
30175W        W61391  12.500   4.677   2.004 -0.2902 -0.0477 -0.2882
30176W        W61392  24.490  13.619   0.407  0.1955  0.1822  0.2220
30177W        W61393  24.766   2.249   2.574  0.1205  0.2288  0.1152
30178W        W61394  17.998   7.351   3.108 -0.0332  0.2438  0.1285
30179W        W61395  10.948   3.543   7.546  0.2460  0.1266 -0.2949
30180W        W61396   4.153   9.254   1.224  0.3066 -0.2134  0.2140
30181W        W61397  23.836   2.450   3.273  0.1226 -0.0980 -0.0702
30182W        W61398  26.855   1.455   7.849  0.0559  0.0368 -0.0897
30183W        W61399  12.396   2.530   9.560 -0.2787  0.1901  0.0310
30184W        W61400   1.488   0.370   9.799 -0.3348 -0.1883 -0.0117
30185W        W61401  19.099  22.489   7.793  0.0661  0.1813  0.1552
30186W        W61402  25.718  14.202   0.276  0.1480  0.1764  0.1615
30187W        W61403   2.431   0.663   0.727 -0.0215  0.2632  0.0639
30188W        W61404  13.467  23.453   1.091 -0.0410  0.0201  0.0086
30189W        W61405  18.791  21.574   9.178  0.1812  0.3783  0.3501
30190W        W61406  16.706  17.199   9.812 -0.0176  0.0385 -0.1614
30191W        W61407   2.790  18.012   0.173 -0.0595 -0.1431  0.1193
30192W        W61408  22.734  21.325   9.433  0.3474  0.1337 -0.0518
30193W        W61409  14.391  22.070   3.722  0.1832  0.1372 -0.1230
30194W        W61410   8.830  22.541   1.890  0.1779  0.1038  0.1039
30195W        W61411   5.246   1.015   2.247 -0.1788 -0.0733 -0.0373
30196W        W61412   4.880   9.841   2.720  0.0700  0.1432  0.0371
30197W        W61413   5.650  25.560   1.377  0.0416 -0.0840  0.1078
30198W        W61414   5.517   5.545   1.357 -0.1422  0.0949  0.1483
30199W        W61415  16.893  12.674   1.362 -0.2265 -0.2189  0.0431
30200W        W61416   9.878  10.081   2.555 -0.2820 -0.1174  0.0122
30201W        W61417   1.964  13.297   8.549  0.3070  0.3024 -0.0586
30202W        W61418   6.375   9.533   2.504  0.0049  0.4390 -0.0348
30203W        W61419  10.125  18.607   2.044 -0.0344 -0.0950  0.1096
30204W        W61420   8.495   3.667   1.651  0.2219  0.1806 -0.0398
30205W        W61421  21.653   9.140  10.442  0.0095 -0.3478  0.0272
30206W        W61422  10.280  14.606   9.557  0.1262 -0.1457 -0.0215
30207W        W61423  24.522  14.163   9.584 -0.2655  0.2389 -0.0505
30208W        W61424  15.987   8.925   7.888  0.3663 -0.2108  0.0502
30209W        W61425  23.172   0.430   7.814  0.2123 -0.0263 -0.1439
30210W        W61426   9.134  13.909   0.476 -0.1544  0.1304  0.1069
30211W        W61427   3.576  24.193   3.524 -0.1874 -0.1639 -0.0931
30212W        W61428  19.956  12.085   9.971 -0.2238 -0.1568  0.0622
30213W        W61429  25.942  12.589   8.126  0.2651  0.1909 -0.2913
30214W        W61430  23.009   3.283   9.144 -0.2587  0.1887 -0.1553
30215W        W61431  12.398  22.257   1.215  0.0873 -0.5437  0.1850
30216W        W61432   3.506  19.528   8.683 -0.1138 -0.2984  0.2010
30217W        W61433   1.915  25.330   0.248 -0.2667  0.0506 -0.0469
30218W        W61434  18.063   4.349   7.334 -0.0076  0.2574 -0.2171
30219W        W61435   4.376   5.040   7.798  0.0344  0.0437  0.2136
30220W        W61436  12.679  26.948   3.197 -0.1374  0.3189  0.1079
30221W        W61437   6.899   3.606   7.222  0.0162  0.2721 -0.2961
30222W        W61438  20.740  11.151   9.502 -0.1269 -0.0276  0.0436
30223W        W61439  20.666   4.613   7.411 -0.2982  0.0673 -0.1318
30224W        W61440  12.659  25.490   1.029  0.1756  0.1868  0.0415
30225W        W61441   7.573  10.073   1.366 -0.2818 -0.1851 -0.0930
30226W        W61442   5.421  10.946   8.322 -0.0780 -0.0792 -0.1047
30227W        W61443  15.208  15.268   8.906 -0.0694  0.1781  0.2655
30228W        W61444  13.889  15.360   8.723 -0.0763 -0.1816  0.0605
30229W        W61445  24.468   9.459   1.629  0.1382 -0.1429 -0.0155
30230W        W61446  21.352  26.575   9.867  0.2730  0.2219  0.0977
30231W        W61447  11.540  12.136   0.230  0.0023 -0.0834 -0.1601
30232W        W61448  10.387   2.510   8.298  0.4559  0.0742  0.0802
30233W        W61449  20.129  20.063   2.513  0.1903  0.0308 -0.1390
30234W        W61450  23.707  14.079   9.899 -0.1868 -0.1544 -0.1692
30235W        W61451   8.434  25.545   2.084  0.2387 -0.3138 -0.1912
30236W        W61452  23.664  11.296   3.795 -0.0945 -0.0492 -0.2434
30237W        W61453   1.208   1.373   3.241  0.0657  0.2029  0.0596
30238W        W61454  19.884  19.222   8.293 -0.1062 -0.1826 -0.1780
30239W        W61455  21.822  25.495   7.555  0.1158  0.2751 -0.1525
30240W        W61456  15.585  27.141   8.880 -0.0200  0.0716 -0.1693
30241W        W61457  22.233   5.552   0.640 -0.0021  0.0968  0.0921
30242W        W61458  10.736  20.157   0.601 -0.0094  0.1244  0.1755
30243W        W61459  19.114  25.733   1.471 -0.3951 -0.1207 -0.1325
30244W        W61460  21.112  17.463   7.350 -0.0618  0.0607 -0.0130
30245W        W61461   4.428  17.955   1.191  0.1050  0.1672 -0.0742
30246W        W61462  17.981  20.278   9.848  0.0404 -0.3073 -0.0775
30247W        W61463  27.452  27.434  10.045  0.0242 -0.1692 -0.2567
30248W        W61464  20.697  23.637   1.520  0.2000  0.4726 -0.2965
30249W        W61465  25.673  26.970   3.119  0.0311 -0.0566  0.1117
30250W        W61466   7.918   0.010   1.734 -0.1312 -0.1571  0.0732
30251W        W61467  27.463  25.773  10.514 -0.3498  0.1348 -0.3124
30252W        W61468   9.626  11.276   3.521  0.3042 -0.0317 -0.0122
30253W        W61469  10.101  12.421   2.679 -0.1464 -0.0818 -0.1756
30254W        W61470   8.130   9.496   0.416  0.1430 -0.2862 -0.0704
30255W        W61471  10.659  22.327   8.007 -0.0448  0.1226 -0.0156
30256W        W61472  20.981   4.375   8.585 -0.1500  0.1947  0.0293
30257W        W61473  10.631   3.878   0.712 -0.0126 -0.5424 -0.0040
30258W        W61474  10.047  26.113   2.969 -0.0342 -0.0251 -0.3461
30259W        W61475  26.937   1.125   2.923  0.3524  0.0860  0.1141
30260W        W61476  25.344  25.281   9.288  0.0637  0.1048  0.0882
30261W        W61477  21.864   4.114  10.396 -0.2433  0.1944 -0.0322
30262W        W61478   1.533  23.529   9.636  0.0243 -0.1860  0.2561
30263W        W61479   1.390  16.433   8.100  0.0515 -0.0840  0.1287
30264W        W61480  14.989  22.354   9.704 -0.1191 -0.1509  0.0948
30265W        W61481  10.693  26.003   1.738  0.1965 -0.3884  0.0925
30266W        W61482  11.170  27.560   0.233  0.1094  0.1570 -0.2559
30267W        W61483  16.395   4.002   4.375  0.3039  0.1690  0.3354
30268W        W61484  23.964  20.778   9.674 -0.4552  0.0361  0.1511
30269W        W61485  14.324   2.793   9.974  0.1623 -0.0886 -0.0757
30270W        W61486   0.567   1.553   2.758 -0.2715 -0.2797  0.1434
30271W        W61487   0.092  26.587   0.036  0.2122  0.2163  0.1119
30272W        W61488   9.458   1.552   0.957  0.4338  0.0218 -0.0267
30273W        W61489   9.969  16.881   9.927 -0.1469 -0.0836 -0.1927
30274W        W61490  27.490  22.513   1.725 -0.1154 -0.0625  0.4041
30275W        W61491  24.844  11.765   0.523  0.1086 -0.3372  0.0766
30276W        W61492  21.543  25.625   0.721  0.1498 -0.1589 -0.2020
30277W        W61493  23.533  25.727   3.424 -0.0524  0.1148  0.2820
30278W        W61494  14.734  13.680   0.518 -0.2596  0.1681  0.2464
30279W        W61495  26.308   3.492   0.315  0.2094  0.0515  0.3301
30280W        W61496  11.675   5.154   9.768 -0.1433 -0.0988  0.2263
30281W        W61497  23.872  20.830   8.666  0.1252 -0.1725  0.1091
30282W        W61498  12.551  21.796   1.492  0.4179  0.1217 -0.0404
30283W        W61499  27.330  20.991   0.185 -0.0221  0.0188 -0.3923
30284W        W61500   3.323  14.867   9.975  0.0905  0.1484  0.2098
30285W        W61501  22.568   0.813   0.999  0.0086 -0.1369 -0.0168
30286W        W61502  16.473   0.468   9.903 -0.1227 -0.2235  0.2862
30287W        W61503  20.751  25.389   1.100  0.0841 -0.2540 -0.0895
30288W        W61504  10.728  19.059   2.913 -0.0395 -0.2734 -0.2756
30289W        W61505  20.600  23.370   1.907 -0.1324  0.2543 -0.5341
30290W        W61506  17.583   7.501   2.167 -0.0651 -0.1623 -0.1875
30291W        W61507  25.320  27.143   9.250 -0.1314 -0.1956  0.0979
30292W        W61508  13.049  23.235   1.416 -0.3772  0.2060  0.1611
30293W        W61509  20.663  23.600   9.004  0.0189 -0.2925 -0.1260
30294W        W61510  26.852  14.420  10.480  0.0518 -0.0305 -0.0554
30295W        W61511  24.469   0.225   2.479 -0.3097  0.2448 -0.0824
30296W        W61512  17.323   2.654   9.195  0.1864 -0.2175  0.0886
30297W        W61513   2.578   7.718   2.382  0.2091  0.4108 -0.2463
30298W        W61514  12.691  25.695   1.919 -0.2585  0.0926 -0.2160
30299W        W61515  14.554   8.136   7.744  0.0337 -0.0263 -0.3553
30300W        W61516   0.473  22.176   2.862  0.1018  0.0742  0.0252
30301W        W61517  24.317  12.105   0.781 -0.1910 -0.0698 -0.5319
30302W        W61518   0.364  19.982   0.418 -0.1062 -0.1349  0.1445
30303W        W61519  26.815  11.011   8.697 -0.3364 -0.0070  0.0874
30304W        W61520  20.253  16.521   1.557 -0.1847 -0.2477  0.0681
30305W        W61521  11.828   1.572   3.027 -0.0621  0.0083  0.0052
30306W        W61522   9.755  23.574   1.717  0.0020 -0.1259 -0.0379
30307W        W61523  20.030   1.902   0.929  0.1275  0.1858 -0.0435
30308W        W61524   0.838  24.662   3.008 -0.2851  0.0848 -0.1669
30309W        W61525  27.256  26.211   9.319  0.2202 -0.0461  0.1222
30310W        W61526  16.841   6.302   3.030 -0.3097  0.0578 -0.2330
30311W        W61527  17.657   3.365   1.580 -0.3044 -0.0248 -0.0255
30312W        W61528  20.147   2.847   2.000  0.0665  0.0622 -0.1071
30313W        W61529  23.140  24.355   0.322  0.0780 -0.0784  0.0925
30314W        W61530  11.340   4.789   9.807  0.2835  0.1564  0.0602
30315W        W61531  11.295  17.799   8.936 -0.0696 -0.1539 -0.3600
30316W        W61532  11.722   2.672   2.402  0.0134 -0.0575 -0.2067
30317W        W61533   7.098  19.682   8.137  0.1070  0.0453 -0.1555
30318W        W61534  26.238  23.622   9.446  0.3689  0.1967 -0.3599
30319W        W61535  22.937   6.362   2.999  0.4139  0.3000 -0.3761
30320W        W61536  22.213  14.224   9.500  0.0790  0.1320 -0.1953
30321W        W61537  19.594  22.352   0.920 -0.0458 -0.1794 -0.0534
30322W        W61538  20.596  10.670   0.814  0.1076  0.0329 -0.0768
30323W        W61539  16.810  17.284   0.140  0.2191  0.0653 -0.0430
30324W        W61540  16.288  23.769   8.948 -0.1639 -0.1032  0.1124
30325W        W61541  27.139  13.525   9.812 -0.0272 -0.3211 -0.2076
30326W        W61542  18.291  26.967   3.204  0.0369  0.0498  0.0125
30327W        W61543   1.920  25.333   3.946  0.1192 -0.0394  0.2795
30328W        W61544   0.326  22.148   8.218 -0.1744 -0.0834  0.1227
30329W        W61545  17.860   0.931   8.465 -0.0030 -0.3127  0.1202
30330W        W61546   4.699  11.902   0.998 -0.3278  0.0257  0.1214
30331W        W61547  14.462   5.748   2.178  0.0067 -0.0107  0.0080
30332W        W61548  26.859   7.766   0.645  0.0814 -0.2981 -0.1556
30333W        W61549   6.423   5.215   1.254  0.1160  0.1265 -0.1705
30334W        W61550   3.938   1.197   0.751  0.0920 -0.1519  0.0822
30335W        W61551   3.655  21.677   2.543  0.0388  0.1215 -0.2407
30336W        W61552   6.736  22.417  10.526 -0.1420 -0.2062 -0.0987
30337W        W61553  20.840   5.703   3.636 -0.1186 -0.0015  0.2105
30338W        W61554  20.685   1.619   3.696  0.0934 -0.1859  0.2853
30339W        W61555  14.029   0.414   8.447  0.2012  0.1296  0.1937
30340W        W61556   5.932  24.147   8.936 -0.0375  0.1255  0.4847
30341W        W61557  12.578   2.394  10.386 -0.0941 -0.0389  0.1212
30342W        W61558  20.654  27.074   0.797 -0.2101  0.1042  0.2654
30343W        W61559   5.040  25.933   2.429 -0.1447 -0.2781  0.0375
30344W        W61560   3.950  16.673   2.250 -0.2734 -0.1745  0.0093
30345W        W61561  17.951  25.438   2.801  0.0076 -0.1170 -0.0123
30346W        W61562  21.011   1.745   0.164  0.0261 -0.3231 -0.1436
30347W        W61563   1.976  14.177   1.980  0.1178  0.0525  0.0066
30348W        W61564  14.785   1.529   8.537 -0.3755 -0.2220 -0.0016
30349W        W61565  11.693  14.666   2.662 -0.1819  0.0601 -0.0364
30350W        W61566  16.326  15.172   1.029 -0.2279  0.0485  0.0378
30351W        W61567  16.346   1.279   1.131  0.2331  0.1604  0.1133
30352W        W61568   9.846  14.315   8.741  0.0563  0.3502 -0.1622
30353W        W61569  26.984   6.185   1.141 -0.1977  0.3903 -0.0695
30354W        W61570  20.673   7.982   3.735 -0.1333 -0.0061  0.2547
30355W        W61571   8.790   2.966   2.040  0.0990  0.4814  0.0650
30356W        W61572   1.089   1.362   2.350 -0.1859  0.0693 -0.0182
30357W        W61573  19.955   9.219   9.947  0.2154  0.0108  0.0098
30358W        W61574   3.947  20.836   8.324 -0.2093  0.0158  0.1036
30359W        W61575  26.520  16.574   1.151  0.0035 -0.5249  0.0083
30360W        W61576  27.147  14.563   2.061  0.2666  0.0918 -0.3499
30361W        W61577  19.967  13.490  10.188  0.1222 -0.1623 -0.0869
30362W        W61578  27.000  23.347   8.862 -0.0313 -0.0329  0.0484
30363W        W61579  17.766  11.539   0.203 -0.0287 -0.3143  0.0267
30364W        W61580  26.963  12.909   8.996 -0.2264  0.1569  0.2498
30365W        W61581  19.993  13.236   8.391 -0.2145 -0.0531  0.2262
30366W        W61582  10.738  18.290   2.953 -0.1696  0.3542  0.1419
30367W        W61583   1.623   2.344   8.566  0.1032 -0.1789 -0.1166
30368W        W61584   9.874  11.546   8.610  0.0957  0.0512 -0.0632
30369W        W61585   4.455  15.647   3.079  0.0207 -0.1862 -0.0833
30370W        W61586   0.786   8.854   4.200  0.0024 -0.0304 -0.2505
30371W        W61587   3.389   9.350   1.318  0.0308 -0.0046  0.2177
30372W        W61588   5.702  11.661   7.190 -0.0950 -0.0431 -0.3329
30373W        W61589   3.522   6.454   1.849 -0.1617 -0.0081  0.2672
30374W        W61590  17.753   7.944   6.938  0.0405 -0.4633 -0.2789
30375W        W61591  21.286  26.891   2.373  0.0294  0.2693  0.2826
30376W        W61592  21.575   6.735  10.066  0.1328 -0.1673 -0.2866
30377W        W61593  24.191  20.122   9.895  0.2467  0.3106 -0.0653
30378W        W61594  15.046  18.468   1.141 -0.2071  0.0756 -0.1557
30379W        W61595  23.518  25.668   1.183  0.2333 -0.2552  0.1790
30380W        W61596  24.678  24.628   8.215 -0.0006  0.1995 -0.0315
30381W        W61597  15.364   6.955  10.381 -0.0054 -0.0332 -0.0305
30382W        W61598  15.149   5.226   9.269  0.0587  0.0431  0.0200
30383W        W61599  24.257  14.974   7.707  0.3903 -0.2266  0.1807
30384W        W61600   0.695  17.486   2.128  0.0405  0.0037 -0.1997
30385W        W61601  19.980  23.400   2.806 -0.0733  0.1919 -0.2514
30386W        W61602  20.772  13.993   0.880  0.3064 -0.2697  0.0550
30387W        W61603  13.196   7.312   8.375 -0.0250 -0.2581 -0.1109
30388W        W61604  16.519  18.279   0.147 -0.0542  0.0404  0.3166
30389W        W61605  15.845  10.588   7.951 -0.0826 -0.2288 -0.0334
30390W        W61606  14.357  15.956   9.346  0.1875 -0.1562  0.0922
30391W        W61607   7.053   8.310   7.830 -0.5036  0.1210  0.0462
30392W        W61608   1.965  14.530   3.474  0.2267  0.2340  0.0846
30393W        W61609   0.227  16.981   2.408 -0.0813  0.0079 -0.1162
30394W        W61610  18.108  17.361   0.197  0.1723 -0.2668  0.0555
30395W        W61611   5.254  11.229  10.134 -0.0931  0.1181 -0.0092
30396W        W61612   6.501  21.509   3.019  0.3084  0.0724  0.0773
30397W        W61613   3.299  14.331   8.242 -0.1691  0.1788 -0.2174
30398W        W61614   7.035   2.913   0.632 -0.2491  0.1384  0.0684
30399W        W61615  14.379   3.020   2.872  0.1354  0.0037 -0.0247
30400W        W61616   6.930  23.653   2.531 -0.0137 -0.1918  0.1572
30401W        W61617  23.587   1.591   8.456  0.1493 -0.0729  0.0650
30402W        W61618  23.685  14.725   8.491 -0.0678 -0.0324  0.1234
30403W        W61619   9.103   9.729   2.873  0.1577 -0.1615  0.3052
30404W        W61620  18.289   1.856  10.114 -0.0913 -0.0399 -0.0258
30405W        W61621  23.094   5.795   3.115 -0.2295  0.2113  0.0045
30406W        W61622  16.694   6.358   2.069 -0.1119  0.2195 -0.1289
30407W        W61623  19.560   1.085   0.811 -0.1937  0.0123 -0.1313
30408W        W61624   9.543  24.735   3.466  0.1567  0.1470  0.2144
30409W        W61625  14.369   5.513   9.235 -0.0278 -0.0142  0.1961
30410W        W61626   3.160   7.980  10.109 -0.0784  0.0764 -0.2984
30411W        W61627   3.380  19.582   9.998  0.1537  0.1794 -0.1023
30412W        W61628   2.404  11.399   9.034 -0.2492 -0.0610  0.3871
30413W        W61629   8.019  17.918   1.660  0.1306  0.0286 -0.0604
30414W        W61630  27.615  22.391   7.961  0.0242 -0.0312 -0.1594
30415W        W61631  14.869  16.225   0.395  0.2910  0.0066  0.2228
30416W        W61632   0.810  14.463   0.018  0.1016  0.0944  0.1235
30417W        W61633   7.110  11.373   7.893 -0.2099  0.0390 -0.0899
30418W        W61634  22.724   7.330   3.090  0.0940  0.5421 -0.0232
30419W        W61635   5.555   9.223   8.875 -0.0224 -0.3040  0.2863
30420W        W61636   0.553  23.016   9.892  0.0232 -0.0212 -0.0862
30421W        W61637   3.044   4.641  10.186  0.1475 -0.1847 -0.2147
30422W        W61638  27.377   7.585   1.302  0.3369 -0.1072  0.1433
30423W        W61639  22.767   0.215   0.335 -0.0305 -0.2458  0.1036
30424W        W61640  21.798   2.246   1.802  0.0258  0.0173  0.2420
30425W        W61641  24.741  18.935   7.519 -0.1061 -0.4910  0.4070
30426W        W61642  27.488  17.965   3.313 -0.0416 -0.3187  0.0309
30427W        W61643  12.320  14.696   2.680  0.1083  0.1679  0.0231
30428W        W61644  22.532  11.146   2.043 -0.3618  0.1526 -0.2163
30429W        W61645   5.945   7.144   0.792  0.2138  0.1228  0.1532
30430W        W61646  13.560  23.117   0.388  0.2317 -0.0831 -0.0256
30431W        W61647   7.322  17.202   8.103  0.4183 -0.1412  0.0574
30432W        W61648   3.515   9.409   2.544  0.2096  0.0902 -0.0598
30433W        W61649   1.716  12.087   1.264 -0.2421  0.1200  0.0506
30434W        W61650   0.638   2.896  10.337  0.0496 -0.0199 -0.1517
30435W        W61651  10.103   7.111   2.189  0.1497 -0.0934 -0.2680
30436W        W61652  18.937  17.727   1.168 -0.0413  0.0734  0.0542
30437W        W61653  23.223  14.974   2.328 -0.2537  0.3345  0.0750
30438W        W61654  14.002  25.594   8.630 -0.1008 -0.2733  0.1382
30439W        W61655   2.326  21.484   9.250 -0.0246  0.1261 -0.1409
30440W        W61656  27.108  18.123   0.450 -0.0605  0.0941 -0.0926
30441W        W61657  25.391  20.149   9.294 -0.1879  0.0268  0.1215
30442W        W61658  20.322  20.295   9.176 -0.0122  0.0903  0.0439
30443W        W61659   7.933   2.198   1.910  0.2318 -0.1947  0.0901
30444W        W61660  14.302  15.898   2.078 -0.0973 -0.0141  0.0099
30445W        W61661  24.601  17.527   0.082  0.2922 -0.3021 -0.1351
30446W        W61662   6.821  26.291   0.965  0.2212  0.3239  0.1447
30447W        W61663   6.931  26.298   2.447 -0.1187  0.2045  0.0966
30448W        W61664   6.630  16.706   0.580  0.0074 -0.0244 -0.0014
30449W        W61665  10.923  21.722   1.150  0.2210  0.2426 -0.3667
30450W        W61666   4.438  14.476   2.738 -0.3105 -0.1652 -0.0368
30451W        W61667  15.423  16.041   2.496 -0.1949 -0.0705  0.2160
30452W        W61668  20.944  23.453   2.365  0.0429  0.4102  0.1111
30453W        W61669   2.187   3.502   1.288  0.1460  0.0833  0.1810
30454W        W61670  19.989  16.719   1.095 -0.3225 -0.0374  0.0240
30455W        W61671  26.103  16.245   8.520 -0.3736  0.5134 -0.0133
30456W        W61672   8.126  12.317   9.688  0.1512  0.2549  0.0573
30457W        W61673  14.305   5.518   0.941 -0.0433 -0.1248 -0.1332
30458W        W61674  25.563  26.451   0.448 -0.1703 -0.1147 -0.3131
30459W        W61675   0.446  19.761   0.013  0.2670  0.0469 -0.2513
30460W        W61676  20.502   5.214   2.319 -0.0541 -0.0546  0.0865
30461W        W61677  25.176  12.802   9.389  0.3056 -0.1584  0.2002
30462W        W61678  15.790  12.117   8.978 -0.0857  0.0362  0.2360
30463W        W61679   9.924  15.929   9.944 -0.2524  0.0627 -0.1218
30464W        W61680   5.217  16.145   3.668  0.1999  0.2610  0.1166
30465W        W61681  25.197  11.531  10.146 -0.2148  0.0509 -0.0232
30466W        W61682  14.167  25.056   9.242 -0.0864  0.0048 -0.2712
30467W        W61683  14.536   1.107   3.003  0.1430 -0.1158 -0.1938
30468W        W61684   9.342  18.449  10.288 -0.2031 -0.0869 -0.1594
30469W        W61685  21.492  23.735   8.636  0.1185  0.1813  0.3226
30470W        W61686  25.054  22.382   1.697  0.2031 -0.3703 -0.0904
30471W        W61687   2.459  19.384   1.415  0.3893 -0.1615 -0.1139
30472W        W61688   5.044  16.504   2.796 -0.0510  0.2567  0.1896
30473W        W61689  19.529  15.288   1.934  0.1978  0.3585  0.2016
30474W        W61690   6.421  19.717   2.273 -0.3219 -0.1069 -0.2088
30475W        W61691   7.666  13.945   8.666 -0.0806  0.0373  0.3841
30476W        W61692  17.406  13.564   0.103 -0.1136 -0.0515 -0.1314
30477W        W61693  27.077  13.965   7.570 -0.0103  0.1902 -0.0399
30478W        W61694   5.075   4.372   3.094 -0.2306 -0.0404 -0.3179
30479W        W61695  15.720   4.853   7.710 -0.0978  0.0007  0.0178
30480W        W61696   1.371   7.735   0.543  0.1804  0.1444  0.0375
30481W        W61697   4.506  23.554   1.622  0.1563 -0.2506  0.0724
30482W        W61698   0.377  21.284   1.701 -0.0176 -0.0445 -0.1232
30483W        W61699  15.403  14.379   2.819  0.2455  0.0805  0.1262
30484W        W61700   1.876  26.694   8.713  0.1203  0.0431  0.3505
30485W        W61701  15.225  21.966   1.306  0.3332  0.3104  0.1414
30486W        W61702   5.015  25.835   9.708 -0.1770 -0.1921 -0.1289
30487W        W61703  23.387  11.788   2.235 -0.1531 -0.0073  0.4246
30488W        W61704  23.233  13.176   0.576 -0.2297  0.1478  0.1615
30489W        W61705  11.715  23.389   1.271  0.0383 -0.4727 -0.0356
30490W        W61706  12.977  19.818  10.533 -0.1604 -0.2306  0.0551
30491W        W61707  21.299   3.314   2.456 -0.0785  0.2164  0.2227
30492W        W61708  16.167  25.742   9.004  0.2764  0.0706 -0.0356
30493W        W61709  18.261   0.243   2.656  0.0417 -0.0568  0.3132
30494W        W61710  19.896  23.147   8.950 -0.0383 -0.1124 -0.1741
30495W        W61711   9.089   7.346   2.120 -0.2585 -0.0472  0.0668
30496W        W61712  20.199   4.126   3.042 -0.3225  0.0050 -0.1909
30497W        W61713  20.917   1.080   9.495 -0.0110 -0.0518  0.2234
30498W        W61714  16.624   4.833   9.742 -0.1645 -0.0305  0.3337
30499W        W61715   8.337  24.802   1.140 -0.2385 -0.0109 -0.0682
30500W        W61716   4.764  14.883   3.779  0.3160  0.2734 -0.0956
30501W        W61717  12.957  25.767   1.414  0.2922  0.2109  0.2488
30502W        W61718  14.168  15.789  10.341 -0.0517 -0.3067 -0.1386
30503W        W61719  22.335  17.076  10.053  0.2328 -0.0279  0.0160
30504W        W61720  14.346   5.629   7.679  0.1624 -0.2832 -0.3632
30505W        W61721   6.344   3.409  10.137 -0.0579 -0.1829  0.2747
30506W        W61722   9.234  10.093   9.544  0.2933  0.0474  0.3358
30507W        W61723  21.313   3.835   3.801  0.1564  0.2175 -0.0814
30508W        W61724  15.282  18.179   0.783  0.3785  0.2589 -0.1057
30509W        W61725  22.306  10.998   9.014 -0.0472 -0.1327 -0.0698
30510W        W61726  15.645  25.987  10.189  0.0972 -0.0930 -0.1180
30511W        W61727   6.694  11.387   9.652 -0.3627  0.0369 -0.0751
30512W        W61728   2.900  17.972   8.855  0.2724  0.0766  0.2708
30513W        W61729   9.507  23.529  10.056  0.2636  0.0769 -0.0359
30514W        W61730   6.629  13.242   2.615  0.1948  0.0991 -0.0048
30515W        W61731   2.071  19.462   0.019  0.1650  0.0585 -0.1356
30516W        W61732  24.545  18.084   2.192 -0.0052  0.2067 -0.0199
30517W        W61733  19.400   3.017   2.087 -0.0721 -0.3085  0.1051
30518W        W61734  22.070   1.281   1.738  0.1038 -0.4868  0.2537
30519W        W61735   0.290  18.021   3.732 -0.0117 -0.1604  0.2857
30520W        W61736  20.939  20.245   0.150 -0.1530  0.0100 -0.3026
30521W        W61737  12.852  12.557   2.465 -0.3578  0.0845  0.0600
30522W        W61738   1.656  21.225   0.689  0.2179  0.2432 -0.1500
30523W        W61739   8.166   7.011   1.785  0.2597 -0.1726  0.0897
30524W        W61740  18.861  24.886   9.024  0.0735  0.1166 -0.2110
30525W        W61741   3.209  18.334   0.963  0.2119 -0.2559 -0.0038
30526W        W61742   7.517   8.538   2.255  0.0022  0.0035  0.0575
30527W        W61743   4.957  17.966   1.271  0.1123  0.0066 -0.0003
30528W        W61744  12.927   4.819   1.243 -0.1725  0.1328 -0.0945
30529W        W61745  14.062   1.445   0.873  0.2351 -0.0731  0.0629
30530W        W61746  17.780   0.386   2.829  0.0264 -0.0541  0.0336
30531W        W61747   4.063  21.838   2.277  0.5859  0.1156 -0.2116
30532W        W61748   5.146   8.993   3.117  0.1273 -0.0057  0.0097
30533W        W61749  21.448   4.827   0.921  0.3255  0.0876  0.2184
30534W        W61750   7.245  16.238   2.206 -0.2101  0.0467 -0.2088
30535W        W61751   5.054  10.996   0.464 -0.1131 -0.0368  0.2348
30536W        W61752  23.901   7.793   0.347 -0.0311  0.2813  0.2283
30537W        W61753   4.225  24.690  10.136  0.1528 -0.0223 -0.0832
30538W        W61754   2.698  12.223   8.496 -0.1081  0.0394  0.0436
30539W        W61755   6.692   6.834   7.155 -0.1857 -0.2584  0.1321
30540W        W61756  24.415  19.130   9.025 -0.1117  0.1758 -0.2463
30541W        W61757   3.196   7.549   8.979 -0.1381 -0.2741 -0.3833
30542W        W61758   5.084   0.634   1.924 -0.0828  0.1188 -0.0578
30543W        W61759   8.895  15.601   2.186  0.3869 -0.0585  0.0678
30544W        W61760   5.347   2.835   0.941 -0.1270 -0.3134 -0.1565
30545W        W61761   8.000  25.061   8.573  0.0661 -0.4306  0.1186
30546W        W61762  16.056  18.959   2.732 -0.1586 -0.0588  0.0003
30547W        W61763  16.368   0.177   2.365  0.0447 -0.2523 -0.4489
30548W        W61764  15.591  19.770   2.967 -0.0198 -0.0783  0.1160
30549W        W61765   9.734  18.260   1.906 -0.1631 -0.1967 -0.2204
30550W        W61766   3.658  16.577   1.878 -0.2146  0.1422 -0.0380
30551W        W61767  27.380   8.686   2.191 -0.1912 -0.3271 -0.2536
30552W        W61768   1.655  10.857  10.310  0.1836 -0.1709  0.1373
30553W        W61769  22.247  24.395   9.990 -0.1047 -0.1555  0.2817
30554W        W61770  26.969  19.687   3.653 -0.0895 -0.1769  0.0992
30555W        W61771  15.113  17.156  10.223  0.1288 -0.2191 -0.1701
30556W        W61772  26.747  11.940   9.514 -0.2405 -0.1577  0.0083
30557W        W61773   5.827  24.872   1.617 -0.0500  0.2351 -0.1428
30558W        W61774  26.869  17.232   2.721 -0.0070  0.1046 -0.0200
30559W        W61775  23.175   6.555   7.905 -0.3494  0.0317 -0.0012
30560W        W61776  18.012  10.228   6.743 -0.2901 -0.1699  0.2296
30561W        W61777   5.000   6.381   0.689 -0.0354  0.2519  0.0569
30562W        W61778  18.389  11.821   9.738 -0.2746 -0.0225 -0.1527
30563W        W61779  15.210   4.221   2.748 -0.1288  0.1356 -0.0254
30564W        W61780  24.165   9.816   0.501 -0.1296 -0.1906  0.2750
30565W        W61781   9.739   2.914   3.672  0.1884  0.0690 -0.1413
30566W        W61782  18.584   0.424   2.248  0.0652  0.1980 -0.2268
30567W        W61783  19.060   9.619   3.642  0.0709 -0.1195 -0.0241
30568W        W61784   1.011  17.399   3.036 -0.0633  0.2704 -0.1409
30569W        W61785  16.200  16.682   3.031  0.1377  0.1051  0.0478
30570W        W61786  27.129   9.863   2.611 -0.0597 -0.1692 -0.0331
30571W        W61787  19.246   2.698   8.869  0.3222  0.0223 -0.2897
30572W        W61788  18.810  20.253   8.995 -0.2453 -0.0840 -0.1238
30573W        W61789  14.402   6.915   2.521  0.2506 -0.1281  0.1417
30574W        W61790  27.036   9.162   1.973  0.4491  0.4638  0.2586
30575W        W61791   2.122   5.875   1.338 -0.2022  0.0184 -0.4468
30576W        W61792  23.988   7.685   7.759 -0.0888  0.1032  0.2079
30577W        W61793  15.220   8.837   1.964  0.1565  0.0966 -0.0778
30578W        W61794   4.089   2.874   3.776 -0.2358 -0.2566 -0.1961
30579W        W61795  21.038  24.880   2.652 -0.1203 -0.0350 -0.0567
30580W        W61796   5.314  25.430   1.059 -0.1061 -0.3085 -0.0105
30581W        W61797   6.241  22.248   9.150  0.2893 -0.2809 -0.1453
30582W        W61798  23.815   4.984   0.709  0.2703 -0.0914  0.2186
30583W        W61799  15.505   5.421   7.075  0.1240  0.0368  0.0084
30584W        W61800  21.191  17.577   0.787 -0.1377  0.0207  0.0256
30585W        W61801   7.386  11.059   7.583 -0.1246 -0.1413 -0.0715
30586W        W61802   9.345  21.035   0.240  0.0516  0.0470 -0.0675
30587W        W61803   4.126  13.495   0.228  0.0737 -0.1570 -0.2266
30588W        W61804   3.969   5.390   8.561  0.2073  0.0788  0.1425
30589W        W61805  12.422   0.437  10.476 -0.0021 -0.3721 -0.1130
30590W        W61806   6.019  11.427  10.386 -0.1420  0.0985 -0.0859
30591W        W61807  15.315   0.773   8.362 -0.3062 -0.1558 -0.0348
30592W        W61808  17.563  26.353   9.103  0.1402  0.0323 -0.1652
30593W        W61809   5.778  19.011   9.027 -0.0120 -0.0240  0.2366
30594W        W61810   1.684   1.425   1.056 -0.1151  0.0635 -0.1220
30595W        W61811   4.295   7.466   2.897 -0.2584  0.1794  0.2703
30596W        W61812   1.727   4.407   7.902 -0.2734  0.0726  0.0533
30597W        W61813  24.074  21.320   8.501  0.0977  0.0531  0.0983
30598W        W61814  17.579  19.422   1.788 -0.2431  0.2111 -0.2455
30599W        W61815   5.330   8.094   0.831 -0.2911  0.0143  0.1891
30600W        W61816  22.048  26.989   2.100 -0.1962  0.2288 -0.1524
30601W        W61817  13.187   7.046   9.332 -0.1024 -0.0927  0.1687
30602W        W61818   2.180   1.534   0.174 -0.1771  0.0294  0.2407
30603W        W61819   5.280   9.462   1.897  0.0656 -0.0137 -0.2451
30604W        W61820   7.734  23.078   1.249  0.0827  0.2342 -0.0119
30605W        W61821  20.413   3.012   0.947 -0.2403  0.1414  0.2340
30606W        W61822  13.939  11.191   0.281  0.0837 -0.0436 -0.0019
30607W        W61823  21.081  11.330  10.445  0.0128  0.1162 -0.2507
30608W        W61824  15.655  11.400   3.356  0.2025 -0.1487 -0.2666
30609W        W61825  13.630  17.555   1.498 -0.0031  0.3422 -0.0735
30610W        W61826   0.003   3.892   9.646 -0.2257  0.1210  0.2543
30611W        W61827  14.785   3.335   9.248  0.0837 -0.2528  0.1197
30612W        W61828  24.646  26.842   8.737 -0.1377  0.2583 -0.1857
30613W        W61829  21.236  13.824   8.511 -0.2123  0.1723  0.3450
30614W        W61830   0.127  24.338   0.178 -0.0222  0.4818 -0.1263
30615W        W61831  14.544  19.500   8.376 -0.1635 -0.1262 -0.2513
30616W        W61832  11.701   2.718  10.467  0.0280 -0.1895  0.1583
30617W        W61833  11.917   9.032   9.551 -0.0045  0.0123  0.2596
30618W        W61834  21.984  15.958   8.196  0.0475  0.0902 -0.1996
30619W        W61835  25.277   3.130   1.024  0.1357  0.0951 -0.0453
30620W        W61836  27.074  12.407   8.886 -0.0446 -0.1132 -0.1480
30621W        W61837  24.180  27.398   3.208 -0.0262  0.0116  0.1652
30622W        W61838  24.622  22.460   1.988  0.0667 -0.0078 -0.2477
30623W        W61839  16.126   7.511   9.495  0.0840  0.0312  0.0187
30624W        W61840   6.334   5.693   1.444 -0.1098  0.1506  0.0029
30625W        W61841  20.441  10.628  10.428 -0.1132  0.1206 -0.0410
30626W        W61842  16.919  13.362   1.898  0.0213 -0.2731 -0.0118
30627W        W61843  12.872   8.070   9.424  0.1958  0.0979 -0.0201
30628W        W61844   8.164  10.389   2.501 -0.0231  0.2354  0.0303
30629W        W61845  21.194   5.764   0.785  0.0714  0.4748 -0.1682
30630W        W61846  22.904  26.910   3.539 -0.1841  0.2812  0.2636
30631W        W61847  18.045  20.741   1.022  0.0662 -0.1610  0.5591
30632W        W61848  17.038  24.986   1.635  0.1689 -0.0317 -0.1806
30633W        W61849  26.993  20.143   2.342  0.3137  0.0616  0.0648
30634W        W61850   6.808  14.536   0.123 -0.0403 -0.3834  0.1329
30635W        W61851  18.709   4.816   3.076  0.2397  0.4203  0.1696
30636W        W61852   5.637  11.621  10.153 -0.2264  0.1734 -0.0020
30637W        W61853   0.056  20.617  10.278 -0.0833 -0.2357 -0.2568
30638W        W61854  19.647   8.595   2.807 -0.2000  0.1424  0.1994
30639W        W61855   0.739  20.129   0.142 -0.0403  0.0189 -0.1071
30640W        W61856  18.386   9.785   2.979  0.0436 -0.0880  0.0493
30641W        W61857   9.756  10.046   9.646  0.0042 -0.1208  0.1848
30642W        W61858  21.991  22.444   2.395  0.0053 -0.2184  0.1406
30643W        W61859   8.808   5.500   0.683  0.1052 -0.1220  0.0753
30644W        W61860  26.739  24.088   7.922 -0.1616  0.0945  0.0969
30645W        W61861   8.948  20.186   9.447 -0.2487  0.0059 -0.1863
30646W        W61862  17.172  15.289  10.138 -0.2662 -0.4876  0.0879
30647W        W61863  14.410   8.725   0.964 -0.2263  0.1539 -0.1080
30648W        W61864  12.503   6.960   1.175 -0.3126  0.2328 -0.1203
30649W        W61865  17.962   9.849   2.108  0.1164  0.0513  0.1296
30650W        W61866   0.661  10.036   8.093  0.0862 -0.1841  0.1372
30651W        W61867  17.058  16.359   7.670 -0.0307  0.1358 -0.1452
30652W        W61868  14.473   3.089   2.157 -0.1761 -0.1141  0.2626
30653W        W61869  12.833  11.228   9.061 -0.1039  0.2001 -0.0060
30654W        W61870   7.551   2.743   3.367 -0.1165  0.3386 -0.2764
30655W        W61871  14.551  26.873   0.909 -0.0216 -0.1925  0.1378
30656W        W61872   1.066   8.038   7.986  0.0466  0.1162  0.0877
30657W        W61873  10.011  18.011   2.714  0.1245 -0.2354  0.0495
30658W        W61874  20.397   0.334   2.716 -0.0076  0.1813  0.0563
30659W        W61875  15.569  27.279   1.249  0.1527  0.0487 -0.2595
30660W        W61876   7.002  27.061   8.647 -0.4165  0.1650  0.0550
30661W        W61877  21.003   0.129   9.370 -0.3435  0.0872 -0.2868
30662W        W61878  10.039   6.046   9.461  0.1880  0.2049 -0.0277
30663W        W61879   8.615   1.306   8.922 -0.1665 -0.0450  0.3003
30664W        W61880  12.247  16.704   3.086 -0.1858  0.0825 -0.1000
30665W        W61881  22.565  21.128  10.245 -0.0682 -0.1811 -0.2880
30666W        W61882  10.766  15.597   1.137  0.0128 -0.0904 -0.3075
30667W        W61883   1.520   8.215   0.484 -0.1454 -0.1344  0.0269
30668W        W61884  25.362  24.409   2.131  0.0024  0.2271  0.1832
30669W        W61885   7.739   9.659   3.754 -0.2254  0.1894  0.1924
30670W        W61886  19.428  10.730   2.245 -0.0239 -0.0371  0.1255
30671W        W61887   5.207  12.625   2.419 -0.3630  0.3920 -0.1950
30672W        W61888  23.598  24.337   2.338  0.1443  0.2840  0.1946
30673W        W61889   0.045   8.030   1.148 -0.0136 -0.1002  0.0149
30674W        W61890  15.673   4.510   2.674 -0.0034  0.0430 -0.1597
30675W        W61891  20.930  24.739   8.771 -0.0013  0.1951 -0.0368
30676W        W61892  17.821  20.112  10.392  0.2682  0.3263  0.0582
30677W        W61893  22.920  18.502   7.170  0.2959  0.0572 -0.2880
30678W        W61894  15.556  24.073   2.458  0.2843 -0.1863  0.1502
30679W        W61895  18.269  10.847   9.725  0.3378 -0.0216  0.3237
30680W        W61896  11.318  22.829  10.405  0.3236 -0.1830  0.2516
30681W        W61897   0.437  14.570   2.158  0.2110 -0.0580 -0.4940
30682W        W61898   0.559  23.480   9.847 -0.0595  0.2879  0.2814
30683W        W61899  19.717  11.118   8.307  0.2291  0.1568 -0.0963
30684W        W61900   6.132  14.539   0.781 -0.0143  0.2891 -0.1989
30685W        W61901  21.362  21.299   2.355  0.1355 -0.0186  0.3191
30686W        W61902  24.327   3.835   9.336  0.0535 -0.4750  0.2230
30687W        W61903   3.439   4.671   3.173 -0.0778 -0.1187 -0.2997
30688W        W61904  25.693   6.277  10.253 -0.0539 -0.0787 -0.0882
30689W        W61905   8.517   3.313   7.644  0.0916 -0.0358  0.0313
30690W        W61906   3.891   9.499   9.160  0.3633 -0.2091 -0.0140
30691W        W61907   4.783   0.213   2.084 -0.3704  0.0666  0.0843
30692W        W61908  24.269  17.654   9.136  0.0245 -0.2544  0.2503
30693W        W61909  12.952   6.524   0.347 -0.3522 -0.2339 -0.3359
30694W        W61910   9.474   7.089   1.892 -0.2471  0.0894 -0.0042
30695W        W61911  25.034   5.279   2.996  0.2203 -0.0824 -0.1254
30696W        W61912  17.969  26.473  10.297  0.3269  0.1684  0.2052
30697W        W61913  11.985  19.872   1.097  0.0347  0.2386  0.0458
30698W        W61914  27.445   6.308   1.586  0.0752 -0.1283 -0.0167
30699W        W61915   6.855   0.737   7.119  0.0276 -0.0676 -0.3976
30700W        W61916  22.304   4.075   2.000 -0.0854 -0.1171 -0.0020
30701W        W61917   0.159  13.967   7.907 -0.5141 -0.1370 -0.3173
30702W        W61918  20.693   2.537   8.056 -0.1157  0.0570 -0.0847
30703W        W61919  10.737  14.478   9.633  0.1214  0.1124  0.0629
30704W        W61920   5.105   7.947   3.152  0.0665 -0.1554 -0.1467
30705W        W61921  26.632  20.791   3.744  0.0452  0.1186  0.0090
30706W        W61922   6.605  10.565   9.111 -0.1696 -0.3977 -0.0637
30707W        W61923  20.317  17.152   1.227 -0.2374  0.1251  0.1904
30708W        W61924  19.842  25.492  10.426 -0.0796  0.2098  0.2855
30709W        W61925  14.483  20.316   7.791 -0.0203  0.0318  0.0594
30710W        W61926  12.110  19.793   2.820 -0.0711 -0.0651  0.2394
30711W        W61927  17.625  13.719   1.079 -0.1250 -0.1070 -0.0075
30712W        W61928   8.951  22.329   0.032 -0.0369 -0.0820  0.1692
30713W        W61929  14.440  27.337   9.532 -0.0926 -0.0782  0.0155
30714W        W61930  24.022  25.786   2.842 -0.1345  0.0187 -0.2959
30715W        W61931  23.983  22.118   2.533  0.0188  0.1667  0.0538
30716W        W61932  10.996   9.051   8.492  0.0473  0.1105 -0.0669
30717W        W61933   8.704  20.959   1.949 -0.0562 -0.1181  0.0136
30718W        W61934  24.370  17.466   1.848 -0.0213  0.0339  0.2153
30719W        W61935  15.920   8.673   2.637 -0.3672  0.0818  0.0939
30720W        W61936  12.376  24.578   2.847  0.2014  0.1367 -0.3240
30721W        W61937  14.139  17.076  10.042 -0.3568  0.0601  0.3344
30722W        W61938  12.999   6.858  10.456 -0.2084 -0.5633 -0.4505
30723W        W61939   5.689  10.761   2.694  0.0995  0.1585  0.2307
30724W        W61940   1.363  10.799   9.913 -0.0333 -0.5756 -0.2900
30725W        W61941  20.664  25.495   3.338  0.2622  0.1434 -0.2551
30726W        W61942   8.117  23.056   1.699 -0.0526 -0.3817 -0.0280
30727W        W61943  11.382  11.422   9.873  0.0516 -0.0020 -0.0219
30728W        W61944   7.070   7.196   7.074 -0.2686 -0.0568 -0.1675
30729W        W61945  21.734   9.007   9.284  0.0091  0.1130 -0.2689
30730W        W61946  22.997  19.428   0.091 -0.0894  0.2593  0.0908
30731W        W61947  16.761   8.018   0.349  0.1457 -0.1094 -0.1347
30732W        W61948  14.414  13.596   8.898 -0.1441  0.2168  0.0299
30733W        W61949   9.017  19.754   2.830  0.1212 -0.0734 -0.1534
30734W        W61950  18.744   2.538   7.512 -0.1292  0.0573  0.2527
30735W        W61951   6.692   9.677   7.789 -0.2248 -0.1610  0.0642
30736W        W61952  14.713   4.014   3.013 -0.3657  0.1426 -0.0306
30737W        W61953   8.097  10.859  10.433 -0.1724 -0.0993  0.1286
30738W        W61954  12.704  24.692   0.265 -0.2162  0.0182  0.0341
30739W        W61955  17.721   7.020   8.554 -0.1757  0.0750 -0.1354
30740W        W61956  21.630   6.170   2.345 -0.1198 -0.1442  0.2021
30741W        W61957  10.424  19.496   2.211  0.1004 -0.2612 -0.1240
30742W        W61958  25.616   6.059   1.689 -0.1448 -0.0260  0.1583
30743W        W61959   6.121  12.881   0.049  0.0052  0.0250 -0.2911
30744W        W61960  26.394  19.298   8.096 -0.1048 -0.2798  0.0213
30745W        W61961  16.617   4.614   3.728  0.0964 -0.1241  0.0784
30746W        W61962   3.208   9.781   9.648 -0.1658  0.0300 -0.1681
30747W        W61963   8.202   7.930  10.527 -0.3472  0.0190 -0.0139
30748W        W61964   6.686  24.832   0.549  0.1951 -0.2504 -0.1320
30749W        W61965   6.187  17.865  10.298  0.3170 -0.0131 -0.1198
30750W        W61966  12.297   6.118   1.662  0.1233  0.0744 -0.0469
30751W        W61967   3.013  13.531  10.408 -0.0116 -0.0760  0.0812
30752W        W61968   6.455  23.677  10.435  0.1420  0.1209  0.0098
30753W        W61969  17.204   5.983   3.271 -0.1200  0.0542  0.0995
30754W        W61970   1.171  26.805   2.104  0.0830  0.2796 -0.2474
30755W        W61971   9.695  15.213   9.274  0.0217  0.2289  0.1307
30756W        W61972  10.849  16.264   2.497  0.2311  0.0778 -0.1572
30757W        W61973  17.808   4.070   8.578  0.2157  0.0359 -0.2184
30758W        W61974  24.013   9.427   1.441 -0.0465  0.3234  0.2559
30759W        W61975  19.658   4.318   3.837 -0.0506  0.0916 -0.2139
30760W        W61976  24.576  12.580   1.613 -0.3715 -0.1500  0.0204
30761W        W61977  18.858   9.711   9.063  0.1901  0.1089 -0.1790
30762W        W61978  26.408   0.405   7.537 -0.2740  0.1586 -0.1063
30763W        W61979   5.730  16.015   3.204 -0.1341 -0.1866  0.3044
30764W        W61980  10.878  10.118   9.618 -0.2129 -0.0744  0.4328
30765W        W61981  16.279  22.808   7.804  0.1797  0.0822  0.4336
30766W        W61982  14.295  27.097   3.375  0.0971  0.2859  0.3617
30767W        W61983  26.171   9.911   8.138 -0.0185  0.0789 -0.0575
30768W        W61984   7.921  25.062   1.337 -0.1571  0.0554  0.1402
30769W        W61985  21.853   1.575   9.566 -0.3035 -0.0240 -0.2133
30770W        W61986  18.822  22.187   8.035 -0.1363  0.2441 -0.0558
30771W        W61987   4.570  13.234   1.817  0.0092  0.3571 -0.1531
30772W        W61988  24.493  23.495   0.977  0.0205  0.0383 -0.0219
30773W        W61989  14.650  13.689   2.867 -0.0678  0.0999 -0.2799
30774W        W61990   4.279  25.453  10.489  0.2488 -0.1566 -0.0048
30775W        W61991  15.298  13.469   1.244  0.0229 -0.2228  0.0977
30776W        W61992  14.003   3.914   1.814  0.0390 -0.1024 -0.3506
30777W        W61993  23.089  19.416   8.448 -0.2852  0.2099  0.1035
30778W        W61994  23.571  16.029   0.895  0.2417  0.4095 -0.0320
30779W        W61995   2.571  15.392   1.131  0.0680 -0.2367  0.0053
30780W        W61996  11.813   3.949   8.870  0.3722 -0.1151 -0.0019
30781W        W61997  24.688  12.824   9.144 -0.1117 -0.0741  0.0620
30782W        W61998   8.951  24.437   3.213 -0.1951  0.0122 -0.0522
30783W        W61999   7.321  21.918  10.305  0.0417  0.1085 -0.1082
30784W        W62000   8.449  14.012  10.508 -0.3430  0.1748 -0.0834
30785W        W62001  14.547  24.783   8.719  0.0334 -0.0432  0.3791
30786W        W62002  21.410   8.362   7.436  0.1422 -0.1154  0.1417
30787W        W62003  14.295  22.552   0.062 -0.1538 -0.0148  0.0372
30788W        W62004  17.919  25.191   9.417 -0.2019 -0.0875  0.1193
30789W        W62005  17.871   4.022   8.075  0.0679  0.0324 -0.1221
30790W        W62006  12.305  22.244   9.605  0.2923  0.1527 -0.1949
30791W        W62007   2.830   7.292   3.317  0.0778 -0.1428  0.2780
30792W        W62008  12.301  18.216   8.478 -0.2002 -0.2122  0.1237
30793W        W62009  15.683  20.511   3.621 -0.0659 -0.0595  0.4415
30794W        W62010   1.107  17.068   4.039  0.2555  0.0975  0.0192
30795W        W62011  27.532   0.224   0.437  0.0076  0.1894 -0.0596
30796W        W62012  15.849  24.623   9.106 -0.1566 -0.0340 -0.3808
30797W        W62013   1.774  19.314   1.952  0.0389  0.3166  0.0966
30798W        W62014   1.047  25.054   3.273 -0.0618  0.3104 -0.1622
30799W        W62015   9.624   8.256   3.206  0.2672 -0.0581  0.1299
30800W        W62016  23.824  16.290   1.804 -0.2833  0.2812 -0.0105
30801W        W62017  18.871  15.094   1.358 -0.0997  0.2177 -0.0492
30802W        W62018  24.202   4.559   1.433 -0.1792 -0.0694 -0.1826
30803W        W62019  25.930  10.424   0.471  0.0088  0.1647 -0.1083
30804W        W62020   9.406  24.115   0.947 -0.0635  0.0005 -0.0289
30805W        W62021  25.324   5.942   9.455 -0.1240  0.1653  0.1813
30806W        W62022  17.818  24.691   9.481 -0.3276  0.1359  0.1331
30807W        W62023  16.687   5.374   1.938  0.1251 -0.1065  0.2869
30808W        W62024  10.830   1.097   8.770 -0.2275 -0.0331 -0.0114
30809W        W62025   0.722   2.543   7.903  0.0130  0.1691  0.3304
30810W        W62026  20.711  18.385   2.439 -0.3950  0.2572  0.0986
30811W        W62027  10.474   9.547   1.382  0.0789 -0.5276 -0.1577
30812W        W62028  15.995  22.817   3.222 -0.1209  0.2963  0.1171
30813W        W62029   3.957  11.515  10.352 -0.3371  0.0395  0.1009
30814W        W62030  19.938  11.566   8.001 -0.1819  0.3374  0.3713
30815W        W62031  19.954  13.691   1.267  0.0522 -0.0485  0.2458
30816W        W62032   2.667  22.272   3.262  0.0508 -0.1560  0.2306
30817W        W62033  19.604  11.877   8.221 -0.1028  0.0419  0.1281
30818W        W62034   4.831  20.100   1.858 -0.3560 -0.1099  0.1648
30819W        W62035  26.830  15.532   1.215  0.2359  0.1210 -0.0952
30820W        W62036   1.484  10.901   9.002 -0.1666 -0.1352  0.3521
30821W        W62037  27.247  11.952   2.364 -0.0757  0.1535  0.0531
30822W        W62038  12.144  22.189   8.289  0.1050 -0.3176  0.0452
30823W        W62039  26.028   7.917   8.565 -0.1826  0.0621  0.4666
30824W        W62040  26.951  26.546   0.496 -0.2805  0.2600  0.0586
30825W        W62041  10.310  25.708   9.820 -0.1568 -0.2704 -0.0792
30826W        W62042  25.346  26.517   8.575  0.1549 -0.4161 -0.1441
30827W        W62043  24.922   0.020   2.249  0.2581 -0.0767  0.1937
30828W        W62044  24.593  20.069   1.951 -0.0078  0.1572  0.0054
30829W        W62045  15.437  23.777   8.173 -0.1453 -0.0269  0.0928
30830W        W62046  15.858   1.870   0.041  0.2322 -0.1438  0.1921
30831W        W62047  10.004  11.102   2.443 -0.2066  0.0864  0.0825
30832W        W62048  10.252   3.620  10.426  0.2417 -0.1833 -0.2518
30833W        W62049   0.552  18.750  10.042 -0.3280  0.1646  0.0649
30834W        W62050   9.033  11.143   1.801  0.0780  0.0242  0.0862
30835W        W62051  20.307  23.178   9.865 -0.4576 -0.3213 -0.1071
30836W        W62052  27.166  19.120   1.592 -0.1626 -0.2340  0.0535
30837W        W62053  16.661  17.109   1.327 -0.2435  0.0494 -0.1024
30838W        W62054  25.057  13.938   1.427 -0.2468  0.0987  0.1630
30839W        W62055  25.189   4.307   1.701  0.1940 -0.2837  0.2344
30840W        W62056  18.014  23.987   8.233 -0.0594 -0.2098 -0.0363
30841W        W62057  19.146   1.035   8.492 -0.0681 -0.0179 -0.2063
30842W        W62058   8.920   7.888   7.818  0.3448 -0.0660 -0.0036
30843W        W62059  23.409   7.433   1.181  0.1723  0.3122 -0.0720
30844W        W62060  22.164   2.474   7.858  0.0612 -0.0132 -0.0543
30845W        W62061  25.122  26.810  10.278 -0.1441  0.1195  0.2378
30846W        W62062  23.846   8.664   3.634 -0.0528  0.0068 -0.2865
30847W        W62063  11.015  25.536   1.753  0.1654  0.1399  0.1524
30848W        W62064  11.119  25.195  10.110 -0.3054 -0.1813 -0.1578
30849W        W62065  11.921  23.074   9.136  0.1586  0.0613 -0.3799
30850W        W62066   7.087   9.778   9.995  0.0471  0.0108 -0.0442
30851W        W62067  12.344   9.812   9.773  0.1618 -0.2476  0.2164
30852W        W62068  23.372  11.231   7.684 -0.1291 -0.1616 -0.2218
30853W        W62069  26.621   8.950   1.193 -0.0435 -0.0051 -0.2229
30854W        W62070   9.479   1.639   2.678  0.0209 -0.3942  0.2986
30855W        W62071  18.826   1.368   3.818 -0.0185  0.2548 -0.0850
30856W        W62072  10.975   8.609   1.312 -0.1987  0.1708 -0.1593
30857W        W62073  25.907  22.921   1.657 -0.2393  0.1902 -0.1606
30858W        W62074  20.757  16.473   7.583 -0.1595  0.0946 -0.1837
30859W        W62075  16.246   1.763   0.324  0.0646 -0.0235 -0.1802
30860W        W62076  13.855   0.174   2.728 -0.0688  0.2077  0.0815
30861W        W62077  20.827  23.397   1.119 -0.0078 -0.3483  0.0288
30862W        W62078   8.934   9.259   1.571  0.1724 -0.0054  0.0832
30863W        W62079   0.474   3.625   3.297 -0.1916 -0.3934  0.2647
30864W        W62080   6.278   6.912   9.317 -0.1894  0.1813 -0.0517
30865W        W62081   5.033  23.512   9.569 -0.1145  0.0507 -0.1208
30866W        W62082   7.192   8.225   8.305 -0.3064 -0.2548  0.0786
30867W        W62083  27.013  24.738   2.284 -0.0344 -0.1833 -0.4844
30868W        W62084  27.435  24.749   1.976 -0.0066  0.1791 -0.2837
30869W        W62085  26.570   4.125   9.995 -0.1194  0.0732  0.1507
30870W        W62086  15.605  21.560   8.181  0.3395  0.0147 -0.0233
30871W        W62087  24.239   0.577   3.241 -0.1799  0.2249  0.0105
30872W        W62088   1.360  16.245   7.283  0.0966 -0.1012 -0.0608
30873W        W62089  21.498   2.709   7.257 -0.2844 -0.2765  0.3261
30874W        W62090  20.032   0.518   9.810 -0.0872 -0.1380 -0.1378
30875W        W62091  20.336  22.640  10.208 -0.0350  0.1573 -0.1014
30876W        W62092   3.717  26.433   8.325 -0.1327 -0.1416  0.0801
30877W        W62093  18.467  13.568   9.136 -0.1166  0.1257  0.0041
30878W        W62094   8.157   4.990   8.530  0.0102 -0.0437 -0.0208
30879W        W62095  16.782   6.577   2.627 -0.2124  0.1376 -0.0106
30880W        W62096  25.476   4.331   0.432 -0.0262  0.1426 -0.0199
30881W        W62097  20.133   5.339   8.329 -0.0590 -0.1099  0.0884
30882W        W62098  19.460   8.157   9.864  0.2415 -0.3014  0.2167
30883W        W62099  18.841  25.567   2.456  0.1740 -0.0501 -0.3012
30884W        W62100  18.229  27.069  10.226 -0.0817  0.2037 -0.0416
30885W        W62101   5.272   0.140   2.310  0.0743 -0.2258  0.1335
30886W        W62102  13.678  24.922   0.439  0.0606  0.0190 -0.2390
30887W        W62103  18.424  18.774   1.702 -0.1034  0.2081 -0.0735
30888W        W62104  20.649  19.441   0.617 -0.2475  0.1419  0.0927
30889W        W62105  24.800  26.396   8.791  0.4441 -0.0450 -0.0138
30890W        W62106  13.203  27.045   3.105  0.0127  0.1969  0.0775
30891W        W62107  19.220  17.771   2.872 -0.1623  0.1446 -0.2267
30892W        W62108  19.769   1.902   8.917 -0.1050  0.4144  0.1191
30893W        W62109   9.926   0.005   0.617  0.0975 -0.0707 -0.1129
30894W        W62110  27.272   7.947   0.443  0.4973  0.1105 -0.3557
30895W        W62111  14.893  12.542  10.007  0.1173 -0.2140 -0.3272
30896W        W62112  14.619  10.480   7.825 -0.0013 -0.0394  0.1120
30897W        W62113  20.384   5.050   0.012 -0.2358 -0.1588 -0.3198
30898W        W62114   2.391  10.185   3.456  0.1363  0.0141 -0.1649
30899W        W62115  23.782  21.818   0.579 -0.0200 -0.2117 -0.0651
30900W        W62116  14.562  13.475   1.070 -0.1499  0.0690  0.2087
30901W        W62117  10.581   5.095   7.891  0.0800  0.1818 -0.0497
30902W        W62118  13.502   6.925   2.185  0.0157 -0.3604 -0.1327
30903W        W62119  17.428  25.297   1.464  0.2137 -0.3982  0.1567
30904W        W62120   4.267  18.341   0.835 -0.1469 -0.0559 -0.3985
30905W        W62121   1.653   6.382   2.937 -0.2514 -0.3896 -0.0737
30906W        W62122  19.405  15.494   0.773  0.0360  0.4045 -0.1757
30907W        W62123   6.514  20.148   0.985  0.1522  0.0053 -0.0141
30908W        W62124   0.672   2.372   2.661  0.0326 -0.0384 -0.0407
30909W        W62125   5.182  17.998   8.281  0.0612 -0.0169 -0.2852
30910W        W62126  15.172  20.216   1.614 -0.0833  0.2494 -0.4721
30911W        W62127  13.267  11.393   0.944 -0.0471  0.0823 -0.2626
30912W        W62128   0.216   3.413   2.181  0.1814  0.2283 -0.1511
30913W        W62129  19.954  16.051   7.228 -0.2123  0.5119  0.0073
30914W        W62130  11.708   2.079   1.103 -0.1921 -0.2498  0.1875
30915W        W62131  15.356  24.568   0.967  0.1345  0.0334 -0.1515
30916W        W62132   2.385  24.192   8.903  0.0742 -0.0761 -0.0515
30917W        W62133   6.717   3.296   8.743  0.2173  0.0664 -0.0724
30918W        W62134  22.660  13.988   9.282 -0.0409 -0.1994  0.2853
30919W        W62135  16.269  18.000   3.335 -0.0542 -0.1906  0.0027
30920W        W62136  18.479   3.582   0.445 -0.2670 -0.0366 -0.0829
30921W        W62137  24.073  25.223   0.386 -0.0991 -0.1322 -0.2059
30922W        W62138  14.509   6.613   7.169  0.3706 -0.2567 -0.0656
30923W        W62139   8.251   6.076   2.457  0.2678 -0.3978  0.0231
30924W        W62140   4.433  14.645   0.484  0.0811  0.2182 -0.0096
30925W        W62141  22.002   8.564   1.092 -0.0542  0.2238  0.0661
30926W        W62142  17.674  10.641   9.352 -0.1263  0.3696 -0.3417
30927W        W62143  10.032   6.762   3.082 -0.1649  0.0017  0.0304
30928W        W62144  23.505   1.580  10.159  0.0584 -0.2763 -0.1163
30929W        W62145   4.427  25.151   1.376  0.0519  0.0710  0.1563
30930W        W62146   4.717  11.503   8.393 -0.1174 -0.0890 -0.2948
30931W        W62147  17.860   2.130   2.421  0.1999 -0.2620 -0.1990
30932W        W62148  13.490   6.565  10.084  0.3636  0.1526  0.4844
30933W        W62149   5.663  25.061   1.114  0.0228  0.0053 -0.0050
30934W        W62150  12.835  20.635   1.439 -0.1231  0.4369 -0.0579
30935W        W62151   3.012  11.216   8.172 -0.2303  0.1861 -0.4050
30936W        W62152   5.777  10.184   2.070  0.1127 -0.4029 -0.2200
30937W        W62153  26.809  26.747   0.012  0.2074  0.3106  0.1474
30938W        W62154   1.027  20.611   9.776  0.0899  0.1744  0.1654
30939W        W62155   5.540  10.820   1.272  0.1248 -0.1860  0.2977
30940W        W62156   9.018   8.653   8.961  0.2624 -0.2466 -0.2107
30941W        W62157   4.350   5.499   9.988 -0.0874  0.1399 -0.1385
30942W        W62158  21.675  16.829   2.047  0.1230 -0.0826  0.0203
30943W        W62159  23.194   7.456   0.343  0.2066  0.1537  0.0289
30944W        W62160  27.605  18.403   3.562 -0.0694  0.1882 -0.0454
30945W        W62161   0.324  13.980  10.462  0.4215  0.1092 -0.1097
30946W        W62162  25.876   1.253   1.413  0.5175 -0.5432  0.2616
30947W        W62163  19.518  11.563   0.981 -0.3208 -0.3278  0.1030
30948W        W62164   1.541  25.838   2.801  0.1471  0.0572  0.0430
30949W        W62165  22.744  11.805   0.086 -0.0102  0.0853  0.0918
30950W        W62166  15.814  19.329   2.988 -0.0268 -0.0710 -0.0089
30951W        W62167  17.471  19.619  10.375  0.2324 -0.0699 -0.0281
30952W        W62168  18.179   6.201   9.126  0.2586  0.2771 -0.1305
30953W        W62169  10.914  23.901   9.608 -0.1726  0.0007 -0.0508
30954W        W62170  18.068  25.995   8.354  0.0485 -0.2067  0.0872
30955W        W62171  12.895   2.354   0.334  0.0446  0.0652 -0.1153
30956W        W62172   3.713  25.626   0.740  0.3079 -0.1363 -0.3195
30957W        W62173  19.708   6.049   1.501  0.0764  0.3156 -0.4898
30958W        W62174  20.504   4.453   8.337  0.0264  0.0404  0.2279
30959W        W62175   5.046   4.859   8.312  0.1895 -0.1208  0.0007
30960W        W62176   6.575  20.085   2.670  0.1318 -0.0065 -0.2023
30961W        W62177  23.748   4.559   1.194  0.2622  0.2489  0.1617
30962W        W62178  27.236  24.245   0.186 -0.1656 -0.0652  0.1676
30963W        W62179   2.723  22.738   0.063  0.6170  0.2057  0.0111
30964W        W62180  20.400  16.971   9.861 -0.1799 -0.2267  0.2309
30965W        W62181   1.615  12.312   8.239 -0.2482  0.1392  0.1670
30966W        W62182   1.121   7.264   2.248  0.0697 -0.0098 -0.0074
30967W        W62183  10.333   5.399  10.158 -0.2729  0.4202  0.1710
30968W        W62184   5.875  16.711   2.543 -0.0127 -0.1181  0.1758
30969W        W62185   9.418  21.212   1.920 -0.0746  0.1067 -0.1583
30970W        W62186   0.336  10.398   9.295  0.3073  0.0025 -0.0025
30971W        W62187   9.807   0.786   2.504  0.4934 -0.2204  0.1565
30972W        W62188   7.644  14.092  10.108  0.2211  0.0584 -0.0902
30973W        W62189  14.387  18.756   9.868 -0.0190  0.0594 -0.1375
30974W        W62190  17.767  13.053   0.261  0.1109  0.1631 -0.3247
30975W        W62191   1.124  22.224   8.155  0.2002  0.0464 -0.0963
30976W        W62192  12.887  10.001   2.959  0.0401  0.2217  0.0405
30977W        W62193   3.162  16.567   1.982  0.4110 -0.1171  0.1579
30978W        W62194  14.551  17.958   0.501 -0.0403  0.0714  0.0558
30979W        W62195  17.555  17.853   0.718 -0.0386 -0.1226  0.0065
30980W        W62196   1.689  26.258   9.497 -0.4558  0.3458 -0.0568
30981W        W62197   8.027   1.791   8.609  0.0405  0.3863  0.0767
30982W        W62198  20.771  13.780   0.263  0.0839 -0.1174  0.1880
30983W        W62199  15.061  14.888   3.629  0.1367  0.2341  0.0282
30984W        W62200  27.016   3.834   8.471  0.1081  0.0529  0.0178
30985W        W62201  16.813  23.936   0.108 -0.1330  0.0527  0.2614
30986W        W62202  11.936  20.319  10.146  0.2143 -0.0023  0.1278
30987W        W62203  21.709   7.480   1.112  0.2420 -0.0353  0.0940
30988W        W62204  13.715  26.487   1.489  0.0030 -0.3446  0.2517
30989W        W62205  11.701  25.906   8.654  0.0074  0.1795  0.0173
30990W        W62206  15.487  17.252   1.079  0.0034  0.2344  0.0312
30991W        W62207  17.654   5.799   2.499 -0.1848 -0.1984 -0.0298
30992W        W62208  18.753  21.236   0.678  0.1911  0.1111  0.0042
30993W        W62209  26.403   0.225   1.884  0.1531  0.1499 -0.0722
30994W        W62210   2.511  23.281   0.608 -0.0364  0.3156 -0.2054
30995W        W62211   0.994  18.843   8.798 -0.2268  0.1671 -0.2265
30996W        W62212  11.920  11.121   1.711  0.0445  0.0436  0.0745
30997W        W62213   1.799   7.514   9.030 -0.2383  0.1220  0.2338
30998W        W62214  19.753  19.698  10.162 -0.0466  0.1015  0.0123
30999W        W62215   8.464  22.889   9.626  0.0998 -0.2049 -0.5097
31000W        W62216  24.502  23.803   7.204  0.3905  0.1430  0.1330
31001W        W62217  11.929  23.944   2.331  0.1953  0.0893 -0.0136
31002W        W62218  27.288  26.563   9.703  0.0453  0.0352  0.1999
31003W        W62219   0.518   9.642   1.620 -0.0184  0.1192 -0.2325
31004W        W62220  17.688   9.789   2.533  0.0037 -0.1930 -0.1685
31005W        W62221  18.233  14.180  10.400 -0.1756 -0.0294 -0.1318
31006W        W62222   4.022  15.489   3.321  0.1828  0.1163 -0.1279
31007W        W62223  13.395  18.863   3.013  0.2754  0.0577  0.0659
31008W        W62224  17.136   5.666   1.935 -0.2763 -0.0349 -0.3842
31009W        W62225   2.075  22.420  10.441  0.1598  0.3428 -0.2159
31010W        W62226  17.246  25.506   3.297 -0.0499  0.2143 -0.0350
31011W        W62227  20.663  15.931  10.250  0.2630 -0.1200 -0.3549
31012W        W62228  14.986   2.004   8.367 -0.1446  0.0564  0.1273
31013W        W62229  25.131  11.705   1.518 -0.1327 -0.1372 -0.0889
31014W        W62230  27.381  25.145   9.883  0.0440 -0.1074 -0.2085
31015W        W62231  20.212  11.935   1.099 -0.0389 -0.2564 -0.1126
31016W        W62232  16.498   8.706   7.873 -0.0205 -0.3092  0.2885
31017W        W62233  23.029  26.053   7.226 -0.0877 -0.1977 -0.2461
31018W        W62234  20.917  12.860   9.249  0.0095 -0.1075 -0.2171
31019W        W62235  12.192   5.781   0.538 -0.0441  0.0117 -0.2150
31020W        W62236   9.264  21.087   7.361  0.1008  0.3117 -0.0272
31021W        W62237   2.377   2.033   0.926 -0.1637 -0.0355 -0.1280
31022W        W62238   2.861  14.435   1.637  0.0935  0.0243  0.1833
31023W        W62239  14.275  14.454  10.464  0.0846  0.0135 -0.2556
31024W        W62240   9.270  12.513   9.351  0.3444 -0.0959  0.0666
31025W        W62241  25.963  19.414   7.869 -0.1997  0.2798 -0.0805
31026W        W62242  14.375   0.174   9.773 -0.0071  0.2675 -0.0179
31027W        W62243  16.654  24.968   8.192  0.2073 -0.1959  0.0987
31028W        W62244  15.850  11.172   1.393 -0.0426  0.2177 -0.1920
31029W        W62245  10.860  11.849   9.248  0.0468 -0.3028  0.2371
31030W        W62246  17.478  24.292   9.506  0.0939  0.0944 -0.6189
31031W        W62247  23.017   9.602   8.025 -0.1928  0.0954 -0.3031
31032W        W62248   0.819  13.118   7.645 -0.0333  0.0403  0.1201
31033W        W62249  24.017  26.517   2.215 -0.0733 -0.2951  0.3829
31034W        W62250   9.928  14.551   0.541 -0.0747  0.1781  0.1052
31035W        W62251  20.537  23.066  10.272  0.1038 -0.0762 -0.0344
31036W        W62252  16.224  24.185   9.274  0.4375 -0.0773 -0.1717
31037W        W62253  17.336  12.606   1.137  0.2195  0.3543 -0.0588
31038W        W62254   7.040  24.180   9.612  0.1946  0.1978 -0.3552
31039W        W62255  13.793  17.808   3.388  0.2465 -0.2636 -0.0758
31040W        W62256   3.224  24.656   8.833  0.1307  0.1005  0.3184
31041W        W62257   2.150   8.633   1.031  0.0857  0.1953 -0.0747
31042W        W62258  16.808   9.844   2.186 -0.1777 -0.1767 -0.3536
31043W        W62259   0.002   2.099   9.595  0.0127  0.3764  0.2054
31044W        W62260   9.167   1.698   7.845 -0.0439 -0.0973 -0.2403
31045W        W62261  23.965  16.882   0.574  0.1030 -0.1739 -0.1967
31046W        W62262  14.516   8.644   2.788  0.0299 -0.1841  0.0756
31047W        W62263  19.298  25.098   9.159 -0.0151 -0.1908 -0.1974
31048W        W62264  16.039  21.870   3.485  0.0052 -0.2235 -0.0001
31049W        W62265  14.010  26.548   1.094  0.1203  0.0454 -0.0068
31050W        W62266   7.494  18.952   8.867  0.0889  0.2091 -0.0894
31051W        W62267   3.239  25.269   7.710 -0.1048 -0.1169  0.2579
31052W        W62268  11.241   2.396   8.446 -0.4534  0.1156  0.0669
31053W        W62269  14.472   7.850   0.532 -0.1578 -0.0062  0.2608
31054W        W62270  24.058  23.533   8.675 -0.1255 -0.4553  0.2413
31055W        W62271   6.251   4.073   7.641  0.0803 -0.0707  0.1143
31056W        W62272  12.385  13.469   0.960  0.1357  0.0936  0.4168
31057W        W62273   0.762  25.758   9.925 -0.0803  0.1645 -0.1241
31058W        W62274   0.937  16.844   1.556  0.1673  0.1238 -0.3026
31059W        W62275   3.074  14.371   0.468 -0.2101 -0.1433 -0.3088
31060W        W62276   6.978  17.590  10.394 -0.2471 -0.0729  0.1718
31061W        W62277  12.045  10.414   8.539 -0.1602 -0.0372  0.2562
31062W        W62278   7.473  26.283   8.788 -0.0945 -0.0355  0.3436
31063W        W62279  19.108   3.352   1.797 -0.0119 -0.1334  0.0066
31064W        W62280   7.102   1.527   1.550  0.1555  0.0066 -0.2907
31065W        W62281   6.286  22.354   2.056  0.1309 -0.0147 -0.0516
31066W        W62282  22.888  26.404   7.512 -0.1347 -0.0907  0.2334
31067W        W62283  13.026   9.554   9.132  0.2826 -0.3439 -0.1211
31068W        W62284  15.069  14.754   8.969  0.2367  0.0602 -0.1917
31069W        W62285  18.098  11.603  10.081 -0.1286  0.0449  0.0462
31070W        W62286   2.211  14.312   0.688  0.1246 -0.1519 -0.1261
31071W        W62287   4.583   2.604   7.792  0.0125 -0.2080 -0.0526
31072W        W62288  11.428  16.946   0.690  0.0242  0.1558 -0.1384
31073W        W62289  20.284  11.775   1.937  0.1372  0.1211 -0.1624
31074W        W62290  21.177  20.822   2.401  0.0362  0.2249 -0.1610
31075W        W62291   4.421   5.062  10.380 -0.0390  0.1245 -0.3852
31076W        W62292  23.675   1.507   1.601 -0.1811  0.2365  0.2951
31077W        W62293   4.337  13.148   0.855  0.1533  0.2816 -0.3854
31078W        W62294   4.090  21.634   9.210 -0.0310  0.1392 -0.0684
31079W        W62295  15.138  23.532   1.808 -0.3638  0.1965 -0.0619
31080W        W62296  11.950  22.760   0.571 -0.0515  0.2901  0.1159
31081W        W62297   8.533  16.411   0.914 -0.2467 -0.2177 -0.1200
31082W        W62298  13.763  21.462   3.868  0.0016 -0.3099  0.0709
31083W        W62299   0.322  22.337  10.517  0.0175 -0.2906 -0.0110
31084W        W62300  16.792   0.024   8.109  0.0452 -0.0507 -0.2360
31085W        W62301  10.557  10.783   9.742  0.2750  0.2577  0.0052
31086W        W62302   5.199  12.793   8.981  0.0056 -0.0949 -0.2367
31087W        W62303  16.889  15.043   1.838  0.0195  0.2111 -0.0149
31088W        W62304  13.612  10.258   1.635  0.1090  0.1390  0.2053
31089W        W62305  16.226  21.365   9.210  0.2700 -0.0261  0.1490
31090W        W62306  16.855   9.634  10.501 -0.1248  0.0102 -0.0047
31091W        W62307   8.434  20.360   2.497 -0.3085  0.0934 -0.0940
31092W        W62308  15.696   4.836   8.202  0.2956  0.0865 -0.0558
31093W        W62309  27.273  25.335  10.403  0.0534  0.0751  0.0450
31094W        W62310  11.314   7.405   9.502 -0.0029  0.0285 -0.4838
31095W        W62311   6.755  25.318   0.326 -0.0792  0.3068  0.2863
31096W        W62312  25.959  16.721   1.190  0.1072 -0.0126  0.1048
31097W        W62313  13.078   0.126   1.921  0.0579  0.0429  0.1392
31098W        W62314  17.191  22.228   9.751  0.0365  0.0880 -0.0277
31099W        W62315   1.267  20.912   0.553 -0.0398  0.1316 -0.1039
31100W        W62316  11.929  11.844   6.780  0.1335 -0.0249 -0.0180
31101W        W62317  17.471   3.458   9.195  0.2865  0.0376  0.0994
31102W        W62318  14.598   2.078   2.929 -0.1556  0.2970 -0.0798
31103W        W62319  15.975  10.607   7.338 -0.1717 -0.3363  0.1046
31104W        W62320  19.994  16.960   1.643  0.2665  0.2715 -0.1831
31105W        W62321  23.528  12.273   0.405 -0.3677 -0.1227 -0.0032
31106W        W62322  18.122   1.598   1.233 -0.1826 -0.0869 -0.1238
31107W        W62323   3.713  19.754  10.339 -0.1316  0.1056  0.2090
31108W        W62324  24.091   2.952   0.353  0.2353 -0.2967  0.4304
31109W        W62325  18.187  11.737   0.495  0.1843  0.0624  0.0931
31110W        W62326  19.050   8.299   2.206 -0.1017 -0.1890  0.0910
31111W        W62327  22.103  14.516   3.550 -0.1415  0.1051  0.2282
31112W        W62328  21.977  25.274   9.436 -0.2522 -0.0162  0.4335
31113W        W62329  25.913   0.311   9.079 -0.1845  0.0284  0.2437
31114W        W62330   0.565  15.003   1.413 -0.1061 -0.0828  0.0599
31115W        W62331  21.330  17.788   0.367  0.1918  0.0368 -0.0595
31116W        W62332   5.343  26.313   1.550  0.0031 -0.1992  0.2672
31117W        W62333  12.567  23.168   1.201 -0.2155  0.0455 -0.0728
31118W        W62334  22.719   8.218   1.783  0.1847  0.1474  0.3884
31119W        W62335  26.390   6.484   0.879  0.1273 -0.2989  0.1869
31120W        W62336  22.089  17.391   0.436  0.0728 -0.0881 -0.0793
31121W        W62337  10.840  24.074   1.523  0.1030  0.2289 -0.0024
31122W        W62338  26.240  19.982   0.996 -0.0341  0.0069  0.2063
31123W        W62339  26.658   3.231   2.057  0.1948  0.2039 -0.1776
31124W        W62340  20.626  26.917  10.334 -0.2796 -0.3589 -0.0669
31125W        W62341  16.591  19.211   9.823  0.3015  0.1227 -0.0813
31126W        W62342  24.809   3.667   8.315  0.0061 -0.0183 -0.2891
31127W        W62343  17.306  25.333   8.308  0.1059 -0.2241  0.0416
31128W        W62344   2.554  22.582   2.854  0.0722 -0.0557  0.0877
31129W        W62345  15.110  12.597   3.300 -0.1499  0.1046  0.0368
31130W        W62346  11.020  23.048   7.782 -0.0249  0.0685 -0.2811
31131W        W62347  15.765   4.957   1.204  0.0660 -0.4390  0.2052
31132W        W62348  23.664  21.146   1.412 -0.1737  0.0198  0.0421
31133W        W62349  14.394   1.741   3.290  0.1687 -0.2009 -0.0152
31134W        W62350   0.113   6.480   0.336 -0.3233  0.0457 -0.0406
31135W        W62351   7.278   1.107   8.564  0.1675 -0.3159  0.1880
31136W        W62352  26.368  20.749  10.429  0.3160  0.1126 -0.0741
31137W        W62353  21.270  27.381   3.127 -0.1659 -0.0034  0.2344
31138W        W62354  24.325  18.089   8.460 -0.1135 -0.0544  0.1689
31139W        W62355  26.677  19.931   2.684 -0.1134 -0.0918 -0.3054
31140W        W62356   7.108   2.501   2.570 -0.1748 -0.0548  0.1121
31141W        W62357   4.854   8.784   2.715  0.0010  0.1459 -0.0765
31142W        W62358  14.726  11.079   0.331 -0.0584 -0.0137  0.1939
31143W        W62359   7.020   3.857   9.459 -0.0792 -0.2598  0.0332
31144W        W62360  14.817   8.549   1.169 -0.0615  0.1163  0.2740
31145W        W62361   3.603  11.402   1.292  0.1238  0.2785 -0.4255
31146W        W62362   1.685  21.719   0.476  0.0782  0.4126 -0.4922
31147W        W62363   1.571   2.716   8.228  0.1892 -0.4343 -0.4343
31148W        W62364  15.848  17.455   0.338  0.1604  0.0408  0.0163
31149W        W62365   8.402  16.395   8.702  0.1595 -0.0864 -0.2131
31150W        W62366   0.710   1.661   9.702  0.0821 -0.0365 -0.3627
31151W        W62367   1.632  25.380   2.162  0.0974 -0.0402 -0.0600
31152W        W62368  16.015  24.451   3.016 -0.0257 -0.0872  0.0721
31153W        W62369   0.624   0.235   8.298  0.2215  0.2778 -0.0278
31154W        W62370  20.173   9.501   1.081  0.2076  0.0146  0.0314
31155W        W62371  24.545  10.077   7.734 -0.0763  0.0527 -0.1421
31156W        W62372  16.126   4.077   9.280 -0.3660 -0.0817  0.1639
31157W        W62373  13.444  18.482  10.473  0.0419 -0.0816 -0.2127
31158W        W62374   9.851  19.043   2.735  0.0330  0.0829  0.1030
31159W        W62375  12.675  21.111   8.924  0.0613 -0.1134  0.2753
31160W        W62376  10.841  25.970   2.328 -0.0999  0.1483  0.0122
31161W        W62377  19.394   6.229   0.621 -0.0991 -0.0054  0.1301
31162W        W62378   1.071   4.124   2.235  0.1122  0.0885 -0.1032
31163W        W62379  23.127  20.484   0.210 -0.1021  0.1181 -0.0559
31164W        W62380  26.020  21.961   0.407 -0.0689 -0.1550 -0.0668
31165W        W62381  26.683   5.781   0.265  0.0855  0.4614  0.1542
31166W        W62382   3.330  21.233   0.588  0.1119 -0.0354  0.0919
31167W        W62383  18.824  21.204   2.620  0.0438 -0.1043 -0.1373
31168W        W62384   6.061  23.131   8.169  0.2534  0.0663 -0.0604
31169W        W62385  19.790   6.987   1.469 -0.0896  0.0012 -0.2011
31170W        W62386   9.721  12.254   0.555 -0.0161  0.0260 -0.1193
31171W        W62387  22.639   6.917   1.025 -0.1827 -0.1184  0.3416
31172W        W62388  24.806   6.065   0.669  0.0413  0.1152  0.1034
31173W        W62389   5.381   1.354  10.517  0.0304 -0.2285 -0.1404
31174W        W62390  19.202   7.697   1.514  0.2372 -0.1530 -0.1664
31175W        W62391  15.798  13.552   8.000 -0.0399 -0.0140  0.0578
31176W        W62392  17.035  19.136   1.904 -0.4408 -0.0998  0.0592
31177W        W62393  19.684   7.339   2.864 -0.0246  0.2716 -0.1117
31178W        W62394  10.249  10.923   2.043 -0.1241  0.1746  0.1393
31179W        W62395  18.498  20.732   1.136 -0.3130  0.2699  0.3347
31180W        W62396  16.002  14.774   2.893 -0.1608  0.2628  0.0784
31181W        W62397  20.674   3.439   8.989  0.1316 -0.2429  0.0340
31182W        W62398  26.243  19.116   3.252 -0.1740 -0.2265 -0.0887
31183W        W62399  19.027  17.376   8.723 -0.0804  0.2356  0.3685
31184W        W62400  26.776  17.148   3.206  0.1202 -0.0546 -0.5089
31185W        W62401   6.031   0.870   1.009 -0.1707 -0.0409 -0.0776
31186W        W62402   7.182  24.055   0.558  0.0359  0.0005  0.1141
31187W        W62403  14.695  21.758  10.098  0.0640  0.4653  0.4032
31188W        W62404   7.261  22.895   9.869  0.1379 -0.0077 -0.1139
31189W        W62405  24.610  11.721   3.609 -0.2677  0.2813 -0.0366
31190W        W62406   3.379   3.731   8.156  0.2455  0.1314 -0.1967
31191W        W62407  21.721   1.403   3.109  0.0944  0.2993  0.1006
31192W        W62408  10.269  19.032   8.100 -0.0358 -0.2229 -0.2373
31193W        W62409   6.878   3.772   1.819 -0.3366 -0.3363 -0.1143
31194W        W62410   5.799  11.584   0.315  0.3334  0.0588  0.1394
31195W        W62411  25.341   2.168   9.124 -0.1043  0.0693  0.1205
31196W        W62412   4.705  27.540   8.212 -0.1691  0.0396 -0.4277
31197W        W62413   6.895   7.448  10.393  0.1655  0.2198  0.1382
31198W        W62414   9.506   0.938   8.167 -0.1903  0.2058 -0.0876
31199W        W62415  13.058  17.099   7.718 -0.3007  0.1071  0.0044
31200W        W62416  22.450  23.289   9.457  0.1930 -0.1202 -0.2158
31201W        W62417  11.721  15.116   2.195  0.1324 -0.0954  0.2949
31202W        W62418  23.395  26.303   0.161 -0.0136  0.0580  0.0084
31203W        W62419   5.160  23.637   9.074 -0.0453 -0.0001  0.0084
31204W        W62420  18.364  10.296   9.756  0.2078  0.0763  0.1479
31205W        W62421  16.867  14.643   8.068  0.0941 -0.2789 -0.1335
31206W        W62422  14.462   3.183   0.324 -0.0884 -0.0232 -0.1329
31207W        W62423  24.192  23.990   3.149 -0.3836 -0.4337  0.2238
31208W        W62424   6.978   7.647   2.464 -0.2723  0.1826 -0.0318
31209W        W62425   2.427  22.330   0.233 -0.0522  0.0471 -0.3163
31210W        W62426   4.196  13.185   2.669 -0.0772  0.0031  0.1367
31211W        W62427  14.604   6.506   0.178  0.4004  0.0788 -0.4464
31212W        W62428   2.098  26.176  10.517  0.1810  0.0570  0.1846
31213W        W62429  18.753  21.657   3.954 -0.0226 -0.0168 -0.1363
31214W        W62430  16.529  19.245   1.022 -0.0303 -0.1951 -0.1496
31215W        W62431   0.921  15.860   8.608  0.1102 -0.1888 -0.1177
31216W        W62432   5.350   4.770  10.196 -0.0016  0.0096 -0.1793
31217W        W62433   0.533  15.937   1.807 -0.0656 -0.1251 -0.1071
31218W        W62434   1.993  15.278   8.574 -0.2443  0.1436 -0.0880
31219W        W62435  12.215   5.184   8.154 -0.2343  0.0592  0.0484
31220W        W62436  19.618   4.553   2.803 -0.1231 -0.0733  0.2521
31221W        W62437   4.841  20.149   8.643  0.0799  0.0271  0.1206
31222W        W62438  23.061  20.777  10.393  0.2082 -0.0095  0.0966
31223W        W62439  20.431   5.164   0.924  0.1470 -0.2746  0.0037
31224W        W62440  10.427  15.792   9.891  0.1343  0.2659  0.0290
31225W        W62441  18.737   3.602   0.041 -0.3471  0.1266  0.1223
31226W        W62442   0.863  23.627   2.639  0.0546  0.0185  0.5846
31227W        W62443  25.856   4.208   2.431  0.1512 -0.0134 -0.1243
31228W        W62444   5.736   6.101   7.868  0.0467 -0.1905  0.1468
31229W        W62445  26.455   1.361   4.049  0.2101  0.0324 -0.0272
31230W        W62446  12.561   6.600   1.967 -0.0460 -0.1647 -0.2875
31231W        W62447   2.831  24.627   2.110  0.1141  0.1671 -0.2097
31232W        W62448  10.490  21.011   8.309  0.0397 -0.0113 -0.2234
31233W        W62449  23.755  11.184   0.216 -0.2043  0.1723 -0.1805
31234W        W62450  27.618  15.092  10.139 -0.0190  0.0376  0.1532
31235W        W62451  18.067   2.334   3.245 -0.0965  0.1313 -0.4466
31236W        W62452  26.886  22.590   3.554  0.0548 -0.1310 -0.4616
31237W        W62453   4.590   7.017   1.341  0.0547 -0.2208  0.5349
31238W        W62454  15.064   9.388   1.012 -0.1775  0.1250  0.0549
31239W        W62455   0.653  11.325   9.234  0.1494  0.0225 -0.1069
31240W        W62456  25.809  23.873  10.238 -0.0673 -0.2673  0.2660
31241W        W62457  22.965  27.568   0.770 -0.4499 -0.2033 -0.0194
31242W        W62458  14.976  16.711   0.190  0.0107  0.3513 -0.1334
31243W        W62459   9.350  16.036   8.502  0.0663  0.1403  0.0541
31244W        W62460  24.712   9.024  10.419  0.0310 -0.2136 -0.1554
31245W        W62461   5.458  19.494   2.988 -0.0257  0.1504 -0.1135
31246W        W62462   5.181  24.421   2.201  0.0045 -0.0978 -0.0654
31247W        W62463   1.576  10.342   1.437  0.0693 -0.4374  0.2593
31248W        W62464   0.544   3.975   9.823  0.0931 -0.1009 -0.0365
31249W        W62465   4.936  24.986   9.405 -0.1893  0.2073 -0.1113
31250W        W62466  16.987  17.580   3.226  0.0308 -0.2443 -0.1756
31251W        W62467  10.867   1.209   9.959 -0.0126  0.0028  0.1204
31252W        W62468  12.560  15.595   2.507  0.1385  0.0582 -0.0091
31253W        W62469  21.580  25.823   1.694  0.3102  0.1648  0.2980
31254W        W62470   8.876  16.139   0.074  0.2213  0.1176  0.3104
31255W        W62471  17.374  23.769   9.469 -0.1637 -0.1180 -0.4265
31256W        W62472   9.339  14.738   2.482 -0.0999  0.1326  0.2160
31257W        W62473  11.888  15.484   9.059  0.1964  0.2660 -0.1701
31258W        W62474   7.765  26.972   8.214  0.1365 -0.1626  0.1015
31259W        W62475  26.249  11.791  10.149 -0.0421  0.0921 -0.1586
31260W        W62476   4.318  16.054   1.439  0.1057 -0.1840 -0.0739
31261W        W62477  13.842  13.637   0.606 -0.0570  0.0445  0.2845
31262W        W62478  26.386   0.909   1.721 -0.1929  0.1876 -0.1922
31263W        W62479  11.246  13.044   2.323 -0.2202  0.0063  0.4443
31264W        W62480   6.987  12.607   0.575 -0.1506 -0.1413 -0.1032
31265W        W62481  24.679   3.976   9.707 -0.1362  0.0155 -0.1956
31266W        W62482   3.670  14.007   0.917 -0.2749 -0.1190 -0.0910
31267W        W62483  12.478   3.159   2.455  0.5365  0.0514 -0.2009
31268W        W62484   3.609   7.201   8.846  0.4877 -0.4602  0.2547
31269W        W62485  24.767   0.110   7.595  0.1265 -0.0004 -0.3150
31270W        W62486   5.454  17.785   2.116  0.0473 -0.1557 -0.0262
31271W        W62487  12.850  26.412   9.221  0.0829  0.3155 -0.1495
31272W        W62488  23.832   9.149   9.542  0.2231 -0.0048 -0.1319
31273W        W62489  17.996   6.221   8.352 -0.2211 -0.0951 -0.1839
31274W        W62490  13.948   2.459   0.757 -0.0305  0.1422 -0.1297
31275W        W62491   6.750   3.970   0.713  0.2093  0.3164  0.0166
31276W        W62492  21.823  22.465   1.909 -0.1389 -0.3480  0.3659
31277W        W62493   0.736   3.375   2.338  0.2165  0.1652 -0.1111
31278W        W62494   0.297   6.351   8.842 -0.1737 -0.2048  0.1097
31279W        W62495  21.710  22.408   3.325  0.1365  0.1497  0.1868
31280W        W62496  20.834  26.947   1.604 -0.0636  0.0231  0.0661
31281W        W62497  25.032  26.017   1.204  0.1128  0.0042 -0.0105
31282W        W62498  22.951  13.325   0.191 -0.0941 -0.1615  0.0091
31283W        W62499   0.432  20.545   9.932  0.0561  0.1212 -0.0023
31284W        W62500  13.138   9.078   9.210  0.0599  0.3372  0.0045
31285W        W62501   2.517  19.251   2.802  0.1368  0.1533  0.3399
31286W        W62502  17.435   9.980   0.588  0.0834 -0.0099  0.0374
31287W        W62503  14.880  21.045   3.192 -0.1451 -0.2987  0.0166
31288W        W62504  20.077   2.670   9.030 -0.2611  0.0790 -0.1267
31289W        W62505   5.026   8.161   9.636  0.1078 -0.0608  0.0825
31290W        W62506   1.421   0.205   1.178 -0.0208 -0.0063 -0.2871
31291W        W62507  10.090  23.538   7.832 -0.0564  0.0833  0.0190
31292W        W62508   0.887  14.919   9.317  0.0532 -0.0292 -0.2718
31293W        W62509   3.489  18.734   3.503  0.1688  0.2380  0.0415
31294W        W62510  12.041   7.172   1.019  0.1226  0.1473  0.1641
31295W        W62511  18.086   4.890   8.056 -0.0228  0.3319  0.3249
31296W        W62512   5.689  26.503   2.365  0.4993 -0.1404 -0.1220
31297W        W62513  14.879  21.743   7.298 -0.0283  0.0434 -0.0520
31298W        W62514   1.048  25.243   2.628  0.0400  0.0095  0.0950
31299W        W62515  22.285  23.696   2.598 -0.3068  0.1475 -0.0992
31300W        W62516   3.967  17.499   9.630  0.2603 -0.1951  0.0859
31301W        W62517  26.379  12.069   2.785  0.0407  0.1394  0.0288
31302W        W62518   5.406   5.063   8.802 -0.0864  0.0416 -0.0730
31303W        W62519  11.649  15.971   9.291 -0.2206 -0.0996 -0.0213
31304W        W62520   5.389   6.225   2.998 -0.0342 -0.0797 -0.3058
31305W        W62521  25.981  15.090   1.688  0.0958  0.4071  0.2676
31306W        W62522   9.294  25.937   2.586  0.0827 -0.0801 -0.2767
31307W        W62523  11.714  26.332   1.941 -0.3110  0.2444  0.0378
31308W        W62524   6.096   8.043   7.718  0.2323 -0.2573  0.0811
31309W        W62525  24.489   7.992   1.142 -0.1432  0.0796 -0.1597
31310W        W62526   6.396   9.263   0.178 -0.1418  0.2729  0.0659
31311W        W62527  22.871   7.342   8.728 -0.1007 -0.1807  0.0566
31312W        W62528  25.263  19.040   3.678  0.2264  0.0890 -0.3239
31313W        W62529  22.812  11.091   8.387  0.1015 -0.1376 -0.0196
31314W        W62530  18.698   6.010   1.327 -0.0382  0.0068  0.0671
31315W        W62531  13.788  21.893   1.308 -0.0586 -0.1531  0.3082
31316W        W62532  12.876  16.992   0.156 -0.1091 -0.1397 -0.0793
31317W        W62533  11.527   0.565   8.756  0.0749  0.1928 -0.3323
31318W        W62534  13.174  12.478   0.583 -0.1086  0.1732 -0.0197
31319W        W62535  24.651  12.283   2.234 -0.2168 -0.2351  0.0902
31320W        W62536   8.206  25.508   1.400  0.0476  0.2798  0.1443
31321W        W62537  25.012   2.575   1.147 -0.1216  0.0947 -0.0619
31322W        W62538   9.893   7.527   2.647 -0.0982 -0.1142  0.2882
31323W        W62539   8.656   3.611   2.231 -0.1655  0.6145  0.0862
31324W        W62540  21.873  24.404   7.621 -0.2745 -0.0046 -0.0408
31325W        W62541   3.235   5.929   2.654  0.1306  0.1388  0.1584
31326W        W62542   7.568  25.512   3.637  0.3944 -0.1553 -0.0761
31327W        W62543  24.280  13.496   8.757  0.1640  0.1706  0.1251
31328W        W62544  24.695  13.302   2.181  0.0219 -0.0146 -0.2084
31329W        W62545   8.545   0.942   1.880  0.1424  0.0539 -0.1242
31330W        W62546  21.341   0.345   1.250 -0.0401 -0.0114 -0.0281
31331W        W62547   5.482   8.679   8.881 -0.1635  0.2733  0.0063
31332W        W62548   3.418   8.217   9.730  0.0934  0.0891  0.1630
31333W        W62549  11.898   6.874   1.384  0.0220  0.0127 -0.1361
31334W        W62550  23.713   5.834   0.683 -0.0983  0.1021  0.0468
31335W        W62551   2.911  17.514   7.588 -0.2905 -0.0323  0.2637
31336W        W62552  13.479  12.396   1.083 -0.2003  0.3823 -0.2582
31337W        W62553  16.987  21.193   0.144 -0.0398  0.0076 -0.2140
31338W        W62554   3.814   7.395   1.875  0.0638 -0.2210  0.2620
31339W        W62555  10.816  17.844   0.056 -0.0289  0.0403  0.3553
31340W        W62556  15.389  17.010   9.189 -0.2839  0.1369  0.1468
31341W        W62557  11.362   9.335  10.320  0.2111  0.0144  0.0843
31342W        W62558   9.100   8.254   8.144  0.0196 -0.1377 -0.0010
31343W        W62559   5.579   8.184   2.266 -0.1455  0.1311 -0.1394
31344W        W62560   1.424  24.504   1.643 -0.1400 -0.0049  0.2114
31345W        W62561   9.972  26.010   9.213 -0.1290  0.3920 -0.2487
31346W        W62562   1.874  25.110   8.351  0.1513 -0.0524 -0.1281
31347W        W62563   5.277  26.155   8.996  0.1599  0.0230 -0.0052
31348W        W62564   4.684  20.215  10.269 -0.0685 -0.0890  0.1163
31349W        W62565   3.834   5.109  10.326 -0.0674  0.0964 -0.2341
31350W        W62566  24.514   4.795   0.680 -0.1197 -0.2368  0.1722
31351W        W62567  23.754  11.897   9.586 -0.0052  0.0248  0.0279
31352W        W62568   0.286  10.203   9.793  0.0589  0.3254 -0.0643
31353W        W62569  10.332   8.937   1.485 -0.0382 -0.1913  0.3259
31354W        W62570  21.837   3.668   0.103  0.2490  0.1504 -0.1967
31355W        W62571  16.529  11.386   7.093  0.2905 -0.1614  0.0216
31356W        W62572   3.888  15.310   0.159 -0.3723 -0.1922  0.1922
31357W        W62573  11.672   4.022   8.375 -0.1263  0.2143  0.0604
31358W        W62574   7.356  26.319   0.127 -0.1573 -0.0826 -0.3393
31359W        W62575  15.094  22.796   2.654 -0.0341  0.2006 -0.0703
31360W        W62576   6.323  14.821   9.227  0.2533  0.0721  0.0230
31361W        W62577  22.710  18.000   0.148 -0.0026 -0.3225  0.0403
31362W        W62578  11.216  22.071   1.720  0.0727  0.0404  0.0548
31363W        W62579  18.289  23.619   7.927  0.0822 -0.4950  0.2167
31364W        W62580  16.819   7.126   9.740 -0.2266 -0.0542 -0.0276
31365W        W62581  17.988  26.664   2.966 -0.2035  0.2939  0.1359
31366W        W62582   9.577   6.035   7.985 -0.3251  0.1119  0.4723
31367W        W62583   5.188  25.197   9.045  0.1604  0.1068  0.1795
31368W        W62584  25.053  13.810  10.187 -0.0798  0.0121 -0.0794
31369W        W62585  20.189  10.397   8.628 -0.0284  0.1073  0.0331
31370W        W62586   4.261  12.168   7.865 -0.1684 -0.2316  0.0250
31371W        W62587   1.938   3.972   2.769 -0.0329 -0.2223  0.0356
31372W        W62588  12.508   9.746   9.305  0.2389  0.3198  0.1926
31373W        W62589   8.407   1.002   3.093  0.1448 -0.1219 -0.0517
31374W        W62590   9.304   3.397   8.400  0.0538 -0.3920 -0.0785
31375W        W62591  24.011  13.026   0.841 -0.1661 -0.3004 -0.3073
31376W        W62592   8.235  11.687   7.976 -0.0021 -0.2644 -0.1958
31377W        W62593   6.195   4.756   7.673  0.0058 -0.1595  0.1888
31378W        W62594  15.631  17.826   9.544 -0.0858 -0.2444 -0.1141
31379W        W62595   0.671  25.500  10.320 -0.1503  0.2137  0.1391
31380W        W62596   8.576  20.948   1.469  0.0492 -0.0207  0.1582
31381W        W62597   0.157  17.173   7.444  0.1668  0.0146  0.0144
31382W        W62598  11.010   2.935   9.064 -0.1378 -0.2019 -0.3815
31383W        W62599  17.024   2.378   8.431  0.0329 -0.0166 -0.3929
31384W        W62600   3.535   4.507   0.512 -0.3518  0.1356 -0.1026
31385W        W62601  11.409  25.420   9.694 -0.2683  0.3069 -0.0175
31386W        W62602   2.237  27.411   8.115 -0.0197  0.3773  0.0386
31387W        W62603   3.340  22.657   2.315  0.3832  0.2033 -0.1452
31388W        W62604  10.983   2.500   7.176  0.3937 -0.0241  0.0482
31389W        W62605   5.805  17.042   0.953  0.3303 -0.0981 -0.0480
31390W        W62606  20.095   4.951   7.721  0.0670  0.0095 -0.1587
31391W        W62607   5.993  17.881   1.155 -0.1111 -0.1396  0.0401
31392W        W62608   3.277  10.986  10.349  0.0217 -0.0963  0.0035
31393W        W62609   0.923  15.232   0.697  0.1743 -0.0610  0.0208
31394W        W62610   4.114  26.551   0.988 -0.2886  0.3130 -0.2600
31395W        W62611  23.178   1.159   8.675 -0.0800 -0.0696 -0.2892
31396W        W62612   7.997   6.745   0.925 -0.1986 -0.3357  0.1425
31397W        W62613  13.942   4.191   3.051  0.0715 -0.1132  0.0565
31398W        W62614   3.818  10.897   8.601 -0.1367 -0.1989  0.0887
31399W        W62615  18.825  15.644   8.427 -0.0314  0.0869  0.2980
31400W        W62616  22.732   2.096   9.578  0.0712  0.2072 -0.1606
31401W        W62617  20.940  24.244   1.079 -0.0136  0.2745 -0.0335
31402W        W62618   5.807  13.336   8.354  0.1598  0.1213 -0.1041
31403W        W62619   8.944  18.453   1.407 -0.0906 -0.2410  0.0129
31404W        W62620  18.354   5.661   1.389  0.2492 -0.1334  0.0456
31405W        W62621  24.543  20.769   1.733  0.0564  0.2406  0.1518
31406W        W62622  12.594   9.750   1.486 -0.1030  0.0500  0.1150
31407W        W62623  22.086  19.646   1.306 -0.1148  0.2731  0.0980
31408W        W62624  19.897  27.023   9.440 -0.2289  0.2954  0.3686
31409W        W62625  23.952   8.806   0.904  0.0153  0.1029  0.0401
31410W        W62626   8.513   7.622   2.070 -0.1828 -0.2468 -0.1771
31411W        W62627   9.832  12.372   1.641  0.1839 -0.2339 -0.0190
31412W        W62628  22.861   1.013   8.270 -0.2310 -0.1689 -0.1966
31413W        W62629   2.463  11.167   9.859  0.0657 -0.2729 -0.1708
31414W        W62630  18.031   4.757   9.231  0.0309  0.2700 -0.2826
31415W        W62631  10.069  23.565  10.009 -0.2603  0.1303 -0.0226
31416W        W62632   9.226  24.403   3.622  0.1599  0.2056  0.0528
31417W        W62633  23.525  23.048   8.051  0.0334  0.0343 -0.3728
31418W        W62634  17.277  14.043  10.476 -0.1207  0.3090  0.0586
31419W        W62635  22.148   8.789   8.062  0.1856  0.0111  0.0489
31420W        W62636  26.081  14.356   0.849 -0.3337  0.0570  0.0176
31421W        W62637   5.183   3.082   3.328 -0.2325 -0.2244  0.3075
31422W        W62638  13.163  15.693   9.992 -0.0462  0.1470 -0.1160
31423W        W62639   6.754  13.377   1.645 -0.2749 -0.1265  0.1571
31424W        W62640   6.038  15.052   2.514 -0.1596  0.0601  0.4478
31425W        W62641   0.021   5.268   0.015  0.1230 -0.0479  0.0430
31426W        W62642  23.798  12.889   2.665  0.0733  0.0745  0.1880
31427W        W62643  17.953  25.555   9.777 -0.1379  0.1980  0.2325
31428W        W62644   9.149  19.793   1.507  0.0379  0.1885  0.2403
31429W        W62645  17.186  14.933   7.295  0.2149  0.1345 -0.0731
31430W        W62646  19.815  15.648   8.545 -0.0446 -0.0223  0.0252
31431W        W62647  22.620  16.560   8.075  0.1569 -0.1278  0.0438
31432W        W62648   4.812   7.954   1.040  0.0722  0.1184  0.1868
31433W        W62649  16.423   6.119   1.130 -0.0062  0.2616  0.1584
31434W        W62650  24.911   0.120   0.966  0.1692  0.0680 -0.0105
31435W        W62651  19.589   5.005   1.299  0.2430 -0.0578 -0.0645
31436W        W62652  25.654   1.797   1.491  0.0871  0.0983  0.0573
31437W        W62653   2.060  22.754   1.562  0.0183 -0.0519  0.1040
31438W        W62654  27.372   3.723   2.368 -0.1965  0.2092 -0.0673
31439W        W62655  17.337  10.083   1.093 -0.0016 -0.2496 -0.2797
31440W        W62656   8.320  24.790   9.622  0.0542  0.0315 -0.0435
31441W        W62657   3.941  21.833   3.656 -0.0151 -0.1190  0.2665
31442W        W62658   5.364   1.713   9.559 -0.2082  0.0598  0.2882
31443W        W62659  17.010  18.612   2.980  0.1810 -0.2487 -0.1729
31444W        W62660   8.812  18.750   0.965  0.0395  0.1158 -0.0789
31445W        W62661  18.803  20.025   3.200  0.1058 -0.0138 -0.0625
31446W        W62662  10.867   8.317   8.202  0.0317 -0.2456 -0.2174
31447W        W62663  19.734  24.497   3.374 -0.2809 -0.1076 -0.4232
31448W        W62664   8.164  11.555   8.868 -0.2633  0.0225  0.3205
31449W        W62665  16.781   1.931   0.126  0.1564  0.1118 -0.1342
31450W        W62666  21.419   9.397   7.811 -0.3035  0.3261  0.0743
31451W        W62667   7.613  23.430   7.969  0.4098 -0.0649  0.2018
31452W        W62668  12.261   9.892   0.460 -0.2169  0.0210  0.0214
31453W        W62669  19.960  22.797   9.940 -0.2235  0.1082  0.0166
31454W        W62670  26.210  23.758   2.279  0.0452 -0.2070  0.0098
31455W        W62671  24.059   8.958   7.562 -0.1373 -0.1259 -0.3766
31456W        W62672  12.094  15.988   3.023  0.2171  0.1142 -0.0620
31457W        W62673   6.496  14.043   3.213  0.2169  0.0147 -0.2295
31458W        W62674  11.189  15.594  10.211  0.1544  0.0121 -0.1686
31459W        W62675   6.705   8.409   8.306  0.1697  0.2191 -0.1507
31460W        W62676   2.389  17.089   0.172  0.2614 -0.0277  0.5230
31461W        W62677  21.804  14.857   7.764  0.0134 -0.2628  0.0401
31462W        W62678  15.824   6.539   3.303 -0.2728  0.1166 -0.0504
31463W        W62679  16.783  11.217   7.479  0.1392 -0.0781 -0.0901
31464W        W62680   2.973  14.756   9.027 -0.2525  0.1422 -0.1511
31465W        W62681  26.738  19.087   9.748  0.2856 -0.0955 -0.0311
31466W        W62682  19.496  19.397   8.523 -0.2248 -0.2920 -0.1204
31467W        W62683  18.452   5.113   1.757  0.4187  0.2462 -0.2680
31468W        W62684   9.620  19.792   1.286  0.1710  0.2224 -0.0139
31469W        W62685  21.034  23.841   0.169  0.1950  0.2468 -0.0844
31470W        W62686  22.498  11.816   3.440  0.3655 -0.1201  0.2749
31471W        W62687  21.123  18.567   8.400 -0.2550  0.0797  0.1199
31472W        W62688  18.289  26.057   1.507 -0.1166 -0.0212 -0.1562
31473W        W62689  18.855  24.000   0.413 -0.1496 -0.0946  0.0489
31474W        W62690  12.208   7.996   1.377 -0.1394 -0.0175 -0.0764
31475W        W62691   1.540   7.550   2.220 -0.0309  0.1443 -0.1902
31476W        W62692  15.559  27.517   9.796  0.1017  0.0976  0.1733
31477W        W62693  23.326  27.201   2.666 -0.1416 -0.0787  0.1707
31478W        W62694   1.173   6.675   1.834 -0.0926  0.0282 -0.1505
31479W        W62695   6.277  19.036   0.912 -0.0669 -0.0864  0.4877
31480W        W62696  21.777   8.403   2.911  0.0221  0.2130  0.0137
31481W        W62697  11.833   3.281  10.126 -0.1428 -0.0957  0.4244
31482W        W62698  11.627   4.986   0.510 -0.0498 -0.0254 -0.3899
31483W        W62699  14.390  26.264   0.989  0.0765 -0.2861  0.0687
31484W        W62700   8.048  13.946   2.251  0.2054 -0.2271 -0.1304
31485W        W62701   1.804  18.905   2.269 -0.2649 -0.2841 -0.4988
31486W        W62702  11.104  12.335   1.349  0.1648  0.3121 -0.2564
31487W        W62703   8.144  25.650   2.578 -0.4995  0.0503  0.0720
31488W        W62704  14.488   9.634   9.288 -0.1253 -0.3603  0.1212
31489W        W62705  17.568  23.229   1.526  0.0761 -0.1626 -0.0809
31490W        W62706  15.694   4.941   0.722  0.1236 -0.1351 -0.2785
31491W        W62707   5.675  21.969   0.670  0.1531 -0.3018  0.0726
31492W        W62708  16.573  23.394   9.774  0.0972  0.2191  0.0371
31493W        W62709  14.633  16.638   8.712  0.0637 -0.3979 -0.1669
31494W        W62710  14.194  22.533   2.933 -0.4788  0.0011  0.0462
31495W        W62711   9.195  22.298   8.567 -0.0330 -0.0033  0.3216
31496W        W62712  21.710   3.209   9.100 -0.2508 -0.2744 -0.1558
31497W        W62713   1.223   5.224   1.559  0.0583 -0.1496 -0.1871
31498W        W62714  22.606  22.463   9.807 -0.5020 -0.4995  0.2357
31499W        W62715  20.375  12.423   2.038 -0.1037 -0.3789 -0.2171
31500W        W62716   6.375  26.262   8.228 -0.2549 -0.1410 -0.1079
31501W        W62717   9.588  16.810   8.053  0.2237 -0.2850 -0.1983
31502W        W62718   8.857  21.958   7.740 -0.3964 -0.0235 -0.1216
31503W        W62719  21.700   6.692   2.712 -0.0340 -0.0797 -0.0507
31504W        W62720  22.626   6.185   8.038  0.2848  0.1543  0.5875
31505W        W62721  14.876  26.472   9.976  0.1171 -0.0635 -0.1789
31506W        W62722  26.209  24.207   0.997 -0.0731 -0.1024  0.1842
31507W        W62723   7.479   4.718   3.027  0.5253  0.1702 -0.0256
31508W        W62724   1.015   4.789   2.972  0.2157  0.2213  0.1616
31509W        W62725  26.273  26.863   1.451  0.2270 -0.2189  0.2278
31510W        W62726  16.166   0.791   8.256 -0.4561 -0.0299  0.0162
31511W        W62727  14.446   9.378   3.716  0.1349 -0.2772 -0.4802
31512W        W62728  26.814  12.987  10.290  0.0245 -0.0758 -0.5235
31513W        W62729   1.158  26.987   0.763 -0.0062 -0.2154 -0.1214
31514W        W62730   9.391   1.054   1.260 -0.1203 -0.2776  0.0277
31515W        W62731  25.631  27.530   0.351 -0.0248  0.1376  0.2794
31516W        W62732  19.742   5.314   0.170 -0.0630  0.1664 -0.0430
31517W        W62733   5.094  15.458   2.589  0.1781  0.1410 -0.0071
31518W        W62734  24.709  23.374   9.239 -0.1433 -0.1594  0.0441
31519W        W62735   7.015  22.724   9.387  0.2156  0.2990  0.0204
31520W        W62736   3.293   3.248   8.343 -0.1941  0.0447  0.1211
31521W        W62737   9.923  17.318   1.998  0.0283 -0.0149  0.0795
31522W        W62738  26.375  20.163   8.435 -0.1229 -0.0676 -0.2004
31523W        W62739   4.081  23.987   3.451  0.2863  0.2569 -0.1908
31524W        W62740  10.328   5.645   0.838 -0.1335  0.1198 -0.1743
31525W        W62741  18.685   4.678   1.085 -0.1351 -0.2392 -0.1074
31526W        W62742  26.736   0.588   2.748 -0.4479  0.1479  0.0860
31527W        W62743   6.598   9.993   2.428 -0.1405 -0.1689  0.2664
31528W        W62744  25.721  22.906   0.803 -0.1524 -0.2810 -0.0320
31529W        W62745  13.350  20.786   7.528  0.1989  0.0285 -0.1185
31530W        W62746  21.988  15.290   2.555 -0.1582 -0.0567  0.1892
31531W        W62747  13.385  19.964   8.002 -0.1430 -0.0230  0.2825
31532W        W62748   6.716   8.352   0.476  0.1539  0.1245 -0.3223
31533W        W62749  25.965  11.870   9.211  0.0089  0.2537 -0.2704
31534W        W62750   0.280   0.487   2.933  0.1213  0.3426  0.0359
31535W        W62751  11.987   6.691   8.442 -0.1214  0.2658 -0.5152
31536W        W62752   8.524   2.152   8.230  0.0641 -0.3067  0.3168
31537W        W62753   0.258  23.171   8.634  0.2912  0.1683 -0.0019
31538W        W62754  16.891  25.775   8.845 -0.0129  0.1558 -0.0112
31539W        W62755  20.620  18.278   0.125 -0.3596  0.1940  0.0366
31540W        W62756  17.849  25.558   1.281  0.1927  0.0790  0.0468
31541W        W62757  11.731   2.422   8.601  0.0914 -0.2363 -0.1054
31542W        W62758   7.096   0.884   7.964 -0.2234 -0.0774 -0.0042
31543W        W62759  20.840   3.428   0.921  0.0710 -0.2530  0.1259
31544W        W62760   9.951  27.560   8.279 -0.3824  0.0337 -0.0391
31545W        W62761   7.154  16.950   2.446 -0.1786  0.0979  0.0421
31546W        W62762  27.530  14.700   9.812  0.6247 -0.2717 -0.1394
31547W        W62763  22.201   8.912  10.429  0.1225 -0.2003 -0.0684
31548W        W62764  11.414  24.733  10.526 -0.1182  0.1335 -0.1869
31549W        W62765  15.134  11.192   8.900 -0.1091  0.0079  0.0930
31550W        W62766  11.450  18.037   0.868  0.0259 -0.1360 -0.1688
31551W        W62767  18.116  11.967   2.388 -0.1578  0.1145  0.2318
31552W        W62768  12.157  17.540   2.101  0.0028  0.1270 -0.0985
31553W        W62769   0.328  10.984   0.418 -0.2563 -0.0899 -0.0627
31554W        W62770  15.084  10.194   8.341 -0.0568  0.0067 -0.2987
31555W        W62771   1.088   4.114  10.104 -0.0502  0.1091  0.1059
31556W        W62772  17.808  16.180   0.456 -0.1323 -0.2194  0.2479
31557W        W62773  20.636   8.074   7.585  0.4619 -0.2301 -0.0385
31558W        W62774  10.963  15.692   3.231  0.3017  0.5188  0.0257
31559W        W62775  19.383   4.436   7.355  0.1484  0.3127 -0.2867
31560W        W62776  14.420   8.181   2.914  0.1944 -0.2701 -0.0273
31561W        W62777  18.473   5.921   1.801 -0.2064  0.0104  0.1253
31562W        W62778   0.998  18.642   9.784 -0.1562  0.2855 -0.2860
31563W        W62779  13.548   3.457   9.696 -0.1757  0.0392  0.1237
31564W        W62780   7.994  26.017   0.576  0.0672 -0.1621  0.1554
31565W        W62781  14.638   2.232   9.319 -0.1848 -0.3581  0.1671
31566W        W62782  22.864  20.345   2.392 -0.2297  0.1460  0.1376
31567W        W62783   9.417  13.508   8.587 -0.0230  0.1178 -0.1214
31568W        W62784   3.179   8.077   0.828  0.1940 -0.0682  0.2303
31569W        W62785  16.902  21.325   3.241 -0.0811  0.0166 -0.1278
31570W        W62786  16.959   7.971   7.191 -0.1150  0.3204  0.2087
31571W        W62787  10.135  17.022   7.353  0.0384 -0.1649 -0.0503
31572W        W62788  15.218  27.124   1.601  0.1779  0.1527  0.3338
31573W        W62789  18.484   8.083  10.158  0.0985 -0.2700  0.0380
31574W        W62790  21.125   3.521   8.108  0.1551  0.2347  0.0128
31575W        W62791  17.254  25.018  10.533 -0.0875 -0.1696 -0.1804
31576W        W62792  17.356   9.907   0.039  0.1474 -0.2937  0.1053
31577W        W62793  16.185  13.861   0.424 -0.1222 -0.0465  0.0676
31578W        W62794  10.685   6.629   0.100 -0.2579 -0.4326  0.3202
31579W        W62795   4.170   7.995   0.700  0.0599 -0.1566 -0.0615
31580W        W62796  18.749  10.197   2.905  0.0449  0.0726 -0.0957
31581W        W62797  27.442  10.341   2.840 -0.3002  0.2891  0.0005
31582W        W62798   7.497  16.844   0.008  0.1777 -0.0977  0.0256
31583W        W62799  17.386  16.850   2.360  0.3156 -0.2410 -0.0464
31584W        W62800   5.617  11.371   9.637  0.0063  0.1319 -0.0243
31585W        W62801  16.513  24.425   0.234  0.4301  0.3042 -0.1106
31586W        W62802   7.103  23.585   0.573  0.2954  0.1331 -0.2949
31587W        W62803  20.393  27.290   1.562 -0.0892  0.4698  0.0479
31588W        W62804  26.482   3.048   0.133 -0.2476  0.3521  0.1109
31589W        W62805   0.107  13.005  10.455 -0.3199  0.1686 -0.2263
31590W        W62806   4.848   5.173   2.965 -0.1288 -0.1106  0.3117
31591W        W62807   2.728   2.758   0.710  0.1488 -0.0590  0.2864
31592W        W62808   4.311  20.549   3.053  0.2490 -0.1538  0.0504
31593W        W62809   8.056   1.087   8.010 -0.1928 -0.0326 -0.0233
31594W        W62810   4.233  16.394   1.864 -0.2505  0.2418 -0.0347
31595W        W62811   5.703  13.000   8.917 -0.2319 -0.0474 -0.1899
31596W        W62812   4.098  21.739   8.371  0.2772 -0.2078  0.2104
31597W        W62813  22.825  15.179   8.344 -0.0308  0.0089 -0.3304
31598W        W62814   9.911  19.800   2.880  0.1906  0.0630  0.0335
31599W        W62815  19.348  20.781   1.671 -0.5907  0.1050  0.0102
31600W        W62816   7.093   1.963   8.073  0.1738 -0.0105  0.0633
31601W        W62817   7.406  21.993   0.367  0.1864  0.1883  0.2437
31602W        W62818  24.371   7.701   1.595 -0.0040 -0.1523 -0.2490
31603W        W62819  17.897  23.588   1.309  0.0702 -0.0206  0.2011
31604W        W62820   9.495  16.797   0.101  0.1796  0.0037 -0.0487
31605W        W62821   6.676   3.978   1.304 -0.4366  0.2579 -0.2517
31606W        W62822  26.306   3.171   3.341  0.2049  0.0223 -0.0851
31607W        W62823  13.426   3.706   8.445 -0.3188 -0.1760  0.0972
31608W        W62824  23.067   5.408   8.635  0.2828 -0.0835  0.1170
31609W        W62825  12.413  25.364   8.961 -0.0287  0.1071 -0.1852
31610W        W62826  15.717   7.068   8.146  0.2506  0.3974  0.0493
31611W        W62827   5.790  20.468   2.223 -0.1390 -0.2363 -0.2246
31612W        W62828  25.745  15.987   7.299 -0.0303  0.3801  0.1665
31613W        W62829   6.617  14.549  10.012  0.0105  0.0536  0.1886
31614W        W62830  25.259  24.594   2.745 -0.2006  0.1355  0.0496
31615W        W62831   2.018  18.970   0.000  0.0923  0.3051  0.3825
31616W        W62832  18.479   9.783   1.935  0.0348  0.0633 -0.0201
31617W        W62833   6.555  11.809   8.835 -0.2577 -0.2463 -0.0397
31618W        W62834  20.130  25.329   8.783 -0.1879  0.0992 -0.2773
31619W        W62835   6.322  12.141   2.284 -0.0993 -0.0832 -0.1996
31620W        W62836   6.840  26.323   0.254  0.0945  0.1695  0.3339
31621W        W62837  22.986  26.714   8.949 -0.0172  0.4874  0.1239
31622W        W62838  17.733  21.598   3.030 -0.1110  0.2131  0.3738
31623W        W62839  12.188   2.294   1.016  0.1049 -0.0044 -0.0881
31624W        W62840  16.687  14.902   9.283 -0.2132  0.2324  0.2715
31625W        W62841  12.217  17.313  10.072 -0.0601 -0.0418  0.0192
31626W        W62842  17.253  10.706   9.687  0.0374 -0.1775 -0.2800
31627W        W62843   6.725   5.026   7.636  0.4597  0.4598  0.0963
31628W        W62844  18.485  27.575   9.382 -0.0024  0.1567  0.2193
31629W        W62845   9.558  14.744   7.990  0.0085 -0.4470 -0.0406
31630W        W62846   8.547  12.417   8.656 -0.0821  0.1455  0.1299
31631W        W62847   9.980  22.842   0.030 -0.3887  0.0914  0.0996
31632W        W62848   8.791  14.481   1.250  0.1724  0.1499  0.0365
31633W        W62849  19.987  11.565   0.222  0.0171 -0.0117  0.0793
31634W        W62850  15.846  25.404   8.782 -0.1472  0.2852  0.0125
31635W        W62851   6.985  25.840   1.197 -0.1341  0.2045 -0.0546
31636W        W62852  14.368   0.300   3.960 -0.2290 -0.1302 -0.1129
31637W        W62853  26.013   8.284   0.373 -0.1916 -0.0426  0.0211
31638W        W62854   0.773  18.600   8.354  0.2094  0.0453  0.0164
31639W        W62855  22.767   1.393   0.138  0.2403 -0.0149  0.0176
31640W        W62856   5.282  27.619   0.872 -0.4051  0.1370  0.0402
31641W        W62857   1.319  26.158  10.070  0.0709  0.0223 -0.0254
31642W        W62858  23.145  24.941   9.361 -0.1736  0.0023  0.0937
31643W        W62859  12.641   9.575   0.787 -0.0794 -0.0237 -0.1933
31644W        W62860   0.867  13.791   1.856  0.0142  0.1524  0.4206
31645W        W62861  21.044   6.310  10.040 -0.1615  0.3583  0.2268
31646W        W62862  24.753   3.253   1.101  0.1123 -0.1823 -0.1438
31647W        W62863   9.574   6.358   3.038 -0.2281 -0.5335 -0.1464
31648W        W62864   2.497   4.096   0.630 -0.1972 -0.2238 -0.2697
31649W        W62865   9.340  25.626   8.722 -0.1274  0.0858 -0.2491
31650W        W62866   2.740  27.130   9.405  0.3752  0.1143  0.0847
31651W        W62867   6.702  11.917   0.012  0.2178  0.0959 -0.1974
31652W        W62868  23.836  12.737   3.205  0.0292  0.1513 -0.2742
31653W        W62869   1.299   8.190  10.129 -0.2131 -0.0222 -0.1534
31654W        W62870  23.840   2.032   8.455 -0.1364  0.0074 -0.0155
31655W        W62871  23.922  16.726   8.069 -0.1559 -0.0971 -0.2022
31656W        W62872  19.054  11.673   8.279  0.0057  0.2708 -0.0908
31657W        W62873   5.893   7.591   1.475  0.1798  0.1351  0.0835
31658W        W62874  23.086  27.528   9.246  0.0640 -0.3165 -0.0932
31659W        W62875   8.307   6.618   2.331  0.0269  0.1944 -0.3345
31660W        W62876  24.121   9.402   9.007  0.1331  0.1295  0.2419
31661W        W62877   3.470  16.492  10.173 -0.1539 -0.4590 -0.0391
31662W        W62878  23.167  25.870   1.529 -0.0868 -0.3413 -0.0998
31663W        W62879  19.695   9.138   2.215 -0.2026  0.2452 -0.0565
31664W        W62880  15.415   4.494   3.113 -0.1421  0.0995  0.1886
31665W        W62881  23.360  16.819  10.191  0.1567 -0.1635  0.2320
31666W        W62882  25.006  18.279   9.308 -0.1419  0.0923 -0.1487
31667W        W62883   0.442   9.346   8.502  0.1870 -0.0066  0.1575
31668W        W62884   5.679  12.806   2.466  0.4528 -0.3310 -0.2311
31669W        W62885   0.994   7.429   9.108  0.3295  0.2322  0.1792
31670W        W62886  13.673  19.671  10.165  0.0152 -0.0875 -0.2140
31671W        W62887  11.445   3.585   0.985 -0.0986  0.1341  0.0078
31672W        W62888  20.801   0.464  10.375  0.2249 -0.4062  0.1719
31673W        W62889  18.929   4.825   0.411 -0.3577  0.0016 -0.0596
31674W        W62890   9.240   2.560   1.923  0.0497 -0.0048  0.2779
31675W        W62891  11.947  15.911   2.505  0.1020  0.3679  0.0993
31676W        W62892  22.237   8.218   9.635  0.1535 -0.3077  0.1744
31677W        W62893  27.592  23.329   8.246 -0.0126  0.0112 -0.0593
31678W        W62894  13.529  16.487   0.543 -0.0329  0.1010  0.1475
31679W        W62895   4.659   3.926  10.146  0.1989 -0.0801 -0.1646
31680W        W62896   2.836   2.194   7.654 -0.0424 -0.3219  0.2495
31681W        W62897   7.771   3.549   1.783 -0.4126  0.0047 -0.0805
31682W        W62898   0.396   9.813   2.811 -0.1029 -0.0530 -0.2707
31683W        W62899   5.076  12.317   1.970 -0.1951  0.1572 -0.0850
31684W        W62900  16.029   4.026   0.530  0.1603  0.5547  0.1457
31685W        W62901   3.449   7.978   9.264 -0.2372 -0.3898 -0.0928
31686W        W62902   4.365  11.706  10.210  0.0018  0.0184 -0.2259
31687W        W62903  13.700   3.919   9.960  0.0326 -0.0301 -0.2114
31688W        W62904   2.038  27.187   1.130 -0.1638  0.1033  0.0567
31689W        W62905   3.323  19.983   9.570  0.1249  0.0605  0.0600
31690W        W62906  18.800   8.276   3.238 -0.0097 -0.6151  0.4314
31691W        W62907  10.760  16.590   0.550 -0.3791 -0.0481  0.0625
31692W        W62908   2.694  21.341   3.372  0.0774  0.3668  0.1157
31693W        W62909   1.510   5.867   0.140 -0.1434 -0.2886 -0.1049
31694W        W62910  12.601  11.261   9.567 -0.0231  0.2870  0.2328
31695W        W62911  18.585  24.577  10.506  0.1827 -0.0173  0.2117
31696W        W62912   0.405   5.896   8.197  0.2890 -0.2949 -0.1093
31697W        W62913  12.875   3.150   2.808  0.2304 -0.1657  0.2760
31698W        W62914   0.291  19.958   9.694 -0.0772  0.1224  0.1105
31699W        W62915   3.475   6.474   7.921 -0.0369 -0.2527 -0.4096
31700W        W62916  27.443   1.610   0.681 -0.1515 -0.1623 -0.0681
31701W        W62917   4.816   5.223   0.745  0.2544  0.3293  0.1455
31702W        W62918  18.149  23.439   3.399 -0.0927  0.1479 -0.1510
31703W        W62919   8.261   8.808   1.013 -0.0417 -0.3221  0.1873
31704W        W62920  16.804  17.691   1.552 -0.1337  0.0110  0.0696
31705W        W62921  23.755  25.707   9.413  0.1547 -0.3610 -0.3922
31706W        W62922   9.701   4.239   1.598  0.2774  0.0302  0.1466
31707W        W62923  20.509  11.302   7.878  0.3821 -0.0628  0.0785
31708W        W62924   7.900   6.778   8.614  0.0013 -0.0984 -0.1988
31709W        W62925   1.904   2.264   9.665  0.2395  0.2549 -0.0935
31710W        W62926   0.953  16.887  10.518 -0.0864 -0.0588  0.0639
31711W        W62927  12.938  18.896   7.678 -0.0125  0.2265  0.1331
31712W        W62928  22.824   7.781   0.112  0.2664 -0.2515  0.1210
31713W        W62929  25.249   2.611   2.716  0.0348 -0.0846 -0.0485
31714W        W62930  15.273  11.411   2.620 -0.0388 -0.1159 -0.2024
31715W        W62931  22.892   1.713   0.559  0.0165 -0.0310  0.0451
31716W        W62932  16.041  22.303   3.090 -0.0024  0.0697  0.1011
31717W        W62933   4.571  13.008  10.009  0.1455  0.0345  0.0062
31718W        W62934  14.777   8.117   3.757  0.3440 -0.0118 -0.1394
31719W        W62935   5.402  13.596   2.206  0.2299  0.3690 -0.1552
31720W        W62936  11.160   0.009   8.908 -0.1272  0.0167 -0.0202
31721W        W62937   1.553   3.003   1.913  0.1322  0.1471 -0.0322
31722W        W62938  25.108  21.118   3.520  0.0264 -0.1442  0.0771
31723W        W62939  16.625  25.573   2.217 -0.1501  0.2481 -0.2293
31724W        W62940   0.233   2.032   0.018  0.0697  0.1123  0.1443
31725W        W62941   3.286  26.260   8.543 -0.1021 -0.1153  0.1947
31726W        W62942  10.895   6.848   3.290 -0.0895 -0.0448 -0.1992
31727W        W62943   8.229  24.672   0.431 -0.0808  0.3187 -0.0277
31728W        W62944   3.054  26.208   8.988  0.1406 -0.2340 -0.1344
31729W        W62945   1.468  17.828   9.447  0.1698  0.1296 -0.0551
31730W        W62946  16.952   8.862   9.138  0.1547 -0.2816 -0.0240
31731W        W62947   9.983  26.032   0.147 -0.3368 -0.0738 -0.2497
31732W        W62948  26.646   4.594   0.733 -0.0949  0.1543  0.1071
31733W        W62949  26.319   6.443   2.391  0.0283  0.0633 -0.3183
31734W        W62950   9.495  26.125   9.374  0.1662  0.1855 -0.3530
31735W        W62951   5.181  21.775   3.194 -0.1224 -0.1325  0.1621
31736W        W62952  15.450  17.396  10.469  0.0808 -0.4221  0.0465
31737W        W62953   3.920   0.746   9.122 -0.1812  0.0506  0.3167
31738W        W62954   8.109  24.362   3.055  0.3011 -0.1905  0.2768
31739W        W62955   5.754  25.680   9.931 -0.2135 -0.3320  0.1339
31740W        W62956  25.085   5.443   2.084 -0.1696 -0.3374  0.0131
31741W        W62957  12.955  26.954   9.205  0.1009 -0.1403  0.1415
31742W        W62958   1.628  17.088   2.152  0.3494 -0.2283 -0.0736
31743W        W62959  26.811  25.634   2.602  0.0817 -0.0715  0.1060
31744W        W62960  25.449  10.686   8.589  0.1689 -0.1677 -0.2369
31745W        W62961  13.312  16.403   1.021  0.5171  0.1682  0.2203
31746W        W62962  21.562  10.804   8.458  0.3094 -0.1431  0.1273
31747W        W62963   7.093  16.713   9.430 -0.0060 -0.0065  0.0320
31748W        W62964   3.568  21.849   3.112  0.2232 -0.1188 -0.1502
31749W        W62965  25.937   9.880   9.043  0.2270  0.2271  0.3709
31750W        W62966  14.616  13.048   2.425  0.1457 -0.0505 -0.2124
31751W        W62967   4.681  17.551   2.627 -0.0497 -0.1443  0.0075
31752W        W62968   7.055  16.101   9.935 -0.3499 -0.2555  0.2797
31753W        W62969  14.355  10.904   7.775 -0.0858  0.1272  0.0271
31754W        W62970  19.605  21.768   9.035  0.1319  0.1580 -0.1738
31755W        W62971  14.567  23.004   8.672  0.1238 -0.0226  0.2006
31756W        W62972   4.372  17.773   9.630  0.0703 -0.2064 -0.0564
31757W        W62973  27.145  26.468   2.621  0.2055 -0.0858  0.1077
31758W        W62974  14.698  26.584   1.294  0.0429 -0.0337 -0.0376
31759W        W62975  14.338   5.937   9.490  0.2243 -0.2830 -0.0432
31760W        W62976   6.647   4.121   8.492  0.3897  0.1888  0.0320
31761W        W62977   8.622   8.195   2.981  0.2332  0.2013  0.0081
31762W        W62978   7.536  10.495   1.019 -0.0564 -0.1096  0.0923
31763W        W62979   6.717   5.165   8.539  0.0042  0.1363  0.0675
31764W        W62980   5.636   6.567   8.797  0.0628 -0.3116  0.1296
31765W        W62981  12.448   0.798   0.304  0.0696 -0.3768 -0.2067
31766W        W62982  24.338  13.053   0.474 -0.3148  0.1613 -0.0193
31767W        W62983   3.056  23.788   9.386  0.0685  0.0047 -0.1781
31768W        W62984  19.370  16.923   9.660 -0.0957 -0.2389 -0.1889
31769W        W62985   6.608  14.496   2.198  0.2873  0.0803 -0.1978
31770W        W62986  16.722   2.880  10.491 -0.1994  0.2579  0.0349
31771W        W62987  15.038   4.741   1.845 -0.0760  0.0648 -0.2614
31772W        W62988  21.261  24.307   1.774  0.1292 -0.3165 -0.2588
31773W        W62989  18.072  12.926  10.200 -0.2034  0.2142 -0.0216
31774W        W62990   6.916   4.862   9.177  0.0225 -0.2418 -0.1339
31775W        W62991  21.648  13.903   1.189 -0.0216  0.1735 -0.1979
31776W        W62992  27.203  10.623   3.711  0.1254  0.0321 -0.1130
31777W        W62993  15.330   9.158   9.819 -0.3935  0.1169  0.0205
31778W        W62994   3.520   8.332   0.464  0.1276 -0.0251 -0.2015
31779W        W62995   7.533   5.048   1.096 -0.4416 -0.3475  0.0386
31780W        W62996  10.593   3.513   2.631 -0.2615  0.1010  0.0617
31781W        W62997  22.502  16.149  10.408 -0.3326 -0.0451  0.1320
31782W        W62998   2.100   3.595   2.392  0.2153 -0.0517  0.0383
31783W        W62999  24.335  17.864   0.320  0.2464  0.4319  0.0066
31784W        W63000   0.027   8.476   8.331  0.0999 -0.0133 -0.0024
31785W        W63001  17.838   6.384   1.262  0.2246  0.0163 -0.2745
31786W        W63002  18.817  15.868   0.900 -0.1864  0.2130 -0.1366
31787W        W63003  12.616   6.752   7.834  0.3440 -0.0222  0.0404
31788W        W63004  13.227  21.175   7.938 -0.1271 -0.0447  0.1258
31789W        W63005   6.864   7.933  10.459 -0.3555 -0.0857 -0.3846
31790W        W63006  10.111   5.956   2.479 -0.3148 -0.1115  0.2485
31791W        W63007   3.791  18.247   0.468  0.0832 -0.3504  0.1038
31792W        W63008  14.886   1.077   8.163  0.1542 -0.0703 -0.0692
31793W        W63009   8.357  18.261   8.488  0.1246  0.1484 -0.0139
31794W        W63010  25.255  25.407   9.837  0.3505  0.1082  0.2962
31795W        W63011   6.374  25.237   2.347  0.0589 -0.0284 -0.0656
31796W        W63012   8.709  25.566   2.505 -0.1584  0.3730 -0.0056
31797W        W63013  12.895   4.426   2.723 -0.3115 -0.0100  0.2169
31798W        W63014   4.370  17.483   8.840 -0.2428 -0.1094 -0.3424
31799W        W63015  10.953  27.360   1.574 -0.2157  0.1042  0.1822
31800W        W63016   1.299  23.988   0.398  0.0007  0.1964  0.2408
31801W        W63017   7.679  25.539   2.828 -0.0115  0.1090 -0.2415
31802W        W63018  25.642   1.758   2.311 -0.3665 -0.2810  0.1017
31803W        W63019  20.746   5.611   1.136  0.1365 -0.3675 -0.4485
31804W        W63020   7.056  16.957  10.250  0.1344 -0.0601  0.1588
31805W        W63021  22.108  15.553   2.081 -0.1365  0.3097 -0.0189
31806W        W63022  19.395  25.086   8.182  0.2803  0.0046  0.2130
31807W        W63023   9.959  16.766   9.057  0.2284  0.0558 -0.1244
31808W        W63024  19.904  11.976   2.771 -0.2736 -0.1014 -0.4222
31809W        W63025  22.157   8.722   2.837 -0.0002 -0.1429 -0.4870
31810W        W63026  11.011  21.680   9.613 -0.4748  0.2675 -0.0691
31811W        W63027  11.296   3.916   2.795  0.1344 -0.2171  0.1949
31812W        W63028   7.980  17.292   2.325  0.1603  0.1308 -0.3789
31813W        W63029  11.452  12.478   1.710 -0.2807  0.2015  0.0057
31814W        W63030  10.458   8.537   1.167  0.1228  0.1982  0.0011
31815W        W63031   7.338  12.986   1.690  0.1914  0.1205 -0.2204
31816W        W63032  11.510  14.219   3.573  0.3861  0.2829  0.0774
31817W        W63033  22.285  26.806   2.599  0.0076  0.2631 -0.1851
31818W        W63034   2.789   5.619   3.857 -0.0631 -0.1108  0.0105
31819W        W63035   6.517   2.778  10.036 -0.0095  0.0126  0.1795
31820W        W63036  13.137  17.912   0.588 -0.3576  0.0952  0.2355
31821W        W63037   4.338   4.839   2.214 -0.1999 -0.0387 -0.1933
31822W        W63038  25.534  17.644   8.780 -0.3058  0.1317  0.0524
31823W        W63039  17.230  22.835   0.073  0.1295 -0.1637 -0.1204
31824W        W63040  15.835  22.258   0.701 -0.3289  0.1467  0.0966
31825W        W63041  16.693  26.546   2.552  0.1906 -0.3224  0.0568
31826W        W63042  25.293   0.075  10.483  0.0975  0.1507 -0.0043
31827W        W63043  27.559   5.679   9.248  0.1405  0.0405 -0.2448
31828W        W63044  17.997  13.639   8.965  0.2104  0.1256  0.4709
31829W        W63045  21.695  22.864   1.014  0.2544 -0.1892 -0.0370
31830W        W63046  27.120  13.684   1.632 -0.1278  0.0840 -0.1139
31831W        W63047   3.163  27.553  10.238 -0.3598  0.0311 -0.0928
31832W        W63048  16.702  21.183   0.893  0.2758  0.5333  0.0758
31833W        W63049  23.958  15.960   8.399  0.2492  0.4593 -0.1360
31834W        W63050  13.704  25.305  10.033 -0.4570 -0.1312 -0.1081
31835W        W63051   2.877   1.152   8.373 -0.1009  0.1569  0.0782
31836W        W63052   7.037  25.837   1.719 -0.0513 -0.3527  0.2736
31837W        W63053   7.931  25.971   9.445  0.1016 -0.1432  0.1229
31838W        W63054  13.852  19.389   8.344  0.0781 -0.2328 -0.1687
31839W        W63055  21.877  15.107   8.170  0.0182 -0.0217 -0.1262
31840W        W63056  16.876  14.782   8.810 -0.1395  0.1074 -0.0908
31841W        W63057  24.804   0.819   8.278 -0.4260 -0.2486  0.0292
31842W        W63058  25.904   6.085   2.209  0.1643  0.2114 -0.1775
31843W        W63059   7.150  26.046   8.490  0.2060 -0.1714  0.1538
31844W        W63060  26.476  25.526   1.611  0.0858 -0.3631 -0.2135
31845W        W63061   6.614  16.904   2.795 -0.2848 -0.3092 -0.0789
31846W        W63062  27.616   7.228   8.800 -0.0393  0.0209  0.2445
31847W        W63063   3.568  17.470   9.956  0.0511  0.1216 -0.0235
31848W        W63064   8.851   4.904   7.220  0.0372 -0.1547  0.0616
31849W        W63065  19.103   8.583   8.517  0.1184 -0.1677 -0.1336
31850W        W63066  12.485  15.410   1.541 -0.0833 -0.2000 -0.1428
31851W        W63067   3.749   9.066   9.432  0.0862  0.0717 -0.1537
31852W        W63068  10.071  16.604   3.024  0.0913  0.0025 -0.0188
31853W        W63069   1.600  19.441   8.986 -0.0898  0.2668 -0.0029
31854W        W63070  17.798  21.370   0.870  0.2232 -0.1296  0.1830
31855W        W63071  20.408  21.688  10.539  0.4474  0.0995  0.2450
31856W        W63072  13.105  26.440   0.578 -0.0378  0.2989 -0.0754
31857W        W63073  14.707  26.329   8.644  0.0037  0.0503 -0.2211
31858W        W63074  10.742  26.482   9.392 -0.0906 -0.2142  0.0089
31859W        W63075  17.330  15.692   1.940 -0.0899 -0.0252 -0.0226
31860W        W63076   4.011   6.549   9.855  0.0749 -0.0506 -0.2104
31861W        W63077  26.637   6.794   2.115  0.0007  0.0672 -0.0835
31862W        W63078  13.248  17.219   8.228  0.1954 -0.0625 -0.2839
31863W        W63079   1.861  22.003   8.292  0.2480  0.0386 -0.3485
31864W        W63080  21.404   3.258   9.932  0.1098 -0.0449  0.2161
31865W        W63081  13.482   2.843   1.119 -0.3598 -0.0906 -0.1110
31866W        W63082  16.012  15.488   7.494 -0.2191 -0.0806  0.1421
31867W        W63083   2.126   1.710   1.560  0.1931 -0.2400  0.1069
31868W        W63084  19.136   2.408   9.282  0.0145  0.0287  0.3149
31869W        W63085   0.739  12.553  10.516  0.1811  0.0908  0.2560
31870W        W63086  16.058  20.423   2.881 -0.1726  0.0031  0.0125
31871W        W63087   1.812  19.226   0.849 -0.0777 -0.1022  0.0330
31872W        W63088  17.077  26.629   7.653  0.1631  0.2294 -0.2166
31873W        W63089  15.607   0.115   1.857 -0.2305 -0.0247  0.1241
31874W        W63090   4.134   9.642   1.522  0.1310  0.2617 -0.1322
31875W        W63091  27.252  16.741   9.800 -0.1565  0.2442 -0.1796
31876W        W63092  19.823   7.473   7.731  0.0411 -0.3005 -0.1120
31877W        W63093  21.716  13.307   8.705  0.0214  0.0217 -0.0930
31878W        W63094  13.686   7.666   1.354  0.0322 -0.2844 -0.1005
31879W        W63095   8.017  14.745   8.611 -0.0457  0.0959  0.0643
31880W        W63096  22.069   2.824  10.376 -0.1126 -0.3563 -0.0167
31881W        W63097  25.728  26.171  10.470  0.1480  0.0321  0.1834
31882W        W63098  17.926  11.718   7.404 -0.1312 -0.2609 -0.1322
31883W        W63099   8.307  16.309   2.207  0.0806  0.1653 -0.0262
31884W        W63100  18.802  12.617   9.232 -0.2877 -0.3905 -0.1468
31885W        W63101  21.596   1.965  10.396  0.1262 -0.1365  0.0493
31886W        W63102  15.804  11.887   2.118  0.1368  0.1271  0.3214
31887W        W63103   5.739  12.642   9.918 -0.1059  0.0985  0.2508
31888W        W63104  12.279   9.349   9.931  0.1235  0.0779 -0.1296
31889W        W63105   8.228   4.512   8.779 -0.0582 -0.0282  0.2728
31890W        W63106  16.751  14.065   2.843  0.0478  0.2291 -0.0741
31891W        W63107   9.111  15.145   2.289 -0.0934  0.1500 -0.4029
31892W        W63108  27.056  17.536   1.680 -0.1818 -0.0884 -0.0612
31893W        W63109  16.601   5.075   2.355  0.0020 -0.0324  0.1140
31894W        W63110   5.199   1.104  10.036  0.0796 -0.1062  0.4537
31895W        W63111  13.662  22.668   1.240  0.2149  0.1217  0.0158
31896W        W63112  21.555  12.264   0.382  0.0573  0.0797  0.0694
31897W        W63113   7.154   9.821   9.494 -0.0107 -0.0432  0.4265
31898W        W63114   4.976  16.300   7.056  0.0206  0.0056  0.0887
31899W        W63115   9.831  14.740   9.351  0.2068  0.1538  0.1884
31900W        W63116   9.024  20.225   1.322  0.1299 -0.2219  0.0001
31901W        W63117  20.914  22.387   2.176 -0.2422  0.2762  0.0437
31902W        W63118  13.739   6.827   0.034  0.1070 -0.1527 -0.0791
31903W        W63119  17.414  12.185   9.242  0.0235  0.3497  0.0965
31904W        W63120  22.435  12.290   8.482  0.0655  0.1476  0.0419
31905W        W63121  24.985   8.207   9.160  0.1019 -0.1180  0.3178
31906W        W63122  12.558  19.944   1.109  0.2982 -0.0817 -0.0074
31907W        W63123   8.613  21.300  10.184  0.1150 -0.2640 -0.0514
31908W        W63124   8.088  12.163   6.835  0.4035  0.0675 -0.3485
31909W        W63125   8.060  19.395  10.025 -0.4201  0.0928  0.0895
31910W        W63126  16.974  13.525   7.095  0.0656 -0.0331  0.2979
31911W        W63127  19.861  12.056  10.530 -0.2083  0.2624  0.0858
31912W        W63128  12.151  20.809  10.011  0.0691 -0.0777  0.0465
31913W        W63129   2.139  23.230   1.158 -0.2544 -0.5006  0.0856
31914W        W63130  13.919   8.606   8.803 -0.0674  0.2575  0.1727
31915W        W63131  22.065   8.455  10.126 -0.2988  0.1912  0.0246
31916W        W63132   1.613  10.211   1.908  0.0810 -0.0451  0.0159
31917W        W63133   1.909  13.827   0.996  0.1528  0.0363 -0.1710
31918W        W63134   6.540   4.955   8.078  0.0876  0.0230 -0.4176
31919W        W63135  26.791   6.611   3.611  0.1966  0.0382  0.3839
31920W        W63136   9.597  14.088   1.324  0.2567  0.1224  0.0034
31921W        W63137  20.718  25.795   7.441  0.0464 -0.1942 -0.0559
31922W        W63138  17.811  19.848   8.419 -0.2060  0.0416 -0.0032
31923W        W63139  10.436  26.781   3.173 -0.1767 -0.2024 -0.3145
31924W        W63140  14.340  25.334   2.268  0.0344  0.2626 -0.3132
31925W        W63141  20.677   0.190   0.220 -0.3035  0.0309 -0.0262
31926W        W63142  10.345  17.989   1.306  0.0980  0.0444  0.2847
31927W        W63143   9.595   3.440   0.260  0.1231  0.1688  0.1141
31928W        W63144   1.255   9.464   2.401 -0.0161  0.2444  0.1865
31929W        W63145  24.583  22.863   9.175 -0.0135  0.1455  0.0822
31930W        W63146  16.730  19.942  10.542  0.0103 -0.0507 -0.1838
31931W        W63147   2.295  18.836   9.571 -0.0332  0.2131  0.5224
31932W        W63148  18.688   5.236   0.011 -0.0111 -0.0993 -0.1350
31933W        W63149   2.895  24.726   0.122 -0.0003  0.0808  0.2808
31934W        W63150  18.275   5.777   7.754 -0.2066 -0.1718  0.1459
31935W        W63151  18.155   4.624  10.126 -0.2053  0.1750 -0.2473
31936W        W63152  20.383   1.803   1.755  0.1945  0.0677  0.0980
31937W        W63153  25.747   0.571   3.312  0.1993  0.0304 -0.0463
31938W        W63154   5.507   5.654   7.553 -0.1499  0.1663 -0.1225
31939W        W63155   9.068   7.317   8.597 -0.1273  0.0792 -0.3110
31940W        W63156  20.169  20.690   0.949 -0.1309  0.2083 -0.1119
31941W        W63157  25.264  17.317  10.110  0.1130 -0.0486  0.0460
31942W        W63158  21.888  18.667   2.701  0.0509  0.0863  0.2441
31943W        W63159  27.128  22.131   1.823  0.1786 -0.1653  0.1461
31944W        W63160  26.301  22.076   0.805 -0.0324 -0.0970  0.4739
31945W        W63161   1.863  11.285   1.332  0.0536 -0.2169 -0.0737
31946W        W63162   9.582  11.121   7.510  0.0534 -0.0916 -0.0742
31947W        W63163  13.939  23.874   3.572 -0.1829  0.2776 -0.0812
31948W        W63164   7.355  10.237   9.703  0.1719  0.0665  0.0912
31949W        W63165   5.093   5.059   9.290  0.1946  0.0422  0.0399
31950W        W63166  22.595  16.329   0.460 -0.2375  0.2063 -0.3578
31951W        W63167  23.240   6.499   0.269  0.2192  0.2029  0.2798
31952W        W63168  23.740  12.240   1.554 -0.0443 -0.0917 -0.0461
31953W        W63169   0.135  19.197   7.900  0.0288 -0.0323 -0.0715
31954W        W63170  26.109   7.077   1.213  0.0445 -0.1200 -0.1544
31955W        W63171  14.376  14.079   2.575  0.0486 -0.1068 -0.4207
31956W        W63172   2.185  17.555   1.674 -0.2993 -0.5364  0.0542
31957W        W63173  21.911  13.467   1.212  0.2615  0.4064  0.2286
31958W        W63174  25.179  16.892   2.261 -0.2522  0.1232 -0.2585
31959W        W63175  10.602  16.504   3.137  0.1810 -0.1887 -0.2629
31960W        W63176  20.920  25.084   0.031 -0.1759  0.0298 -0.0864
31961W        W63177   4.054  24.539   8.163  0.2403 -0.1226  0.0341
31962W        W63178  13.214   2.865  10.341  0.1938  0.0298 -0.2719
31963W        W63179  22.233   1.969   1.646 -0.2594  0.0585 -0.1526
31964W        W63180  19.719  17.582   8.526  0.1148 -0.0225  0.0516
31965W        W63181  27.024   0.036   1.939  0.1329 -0.2672  0.1736
31966W        W63182   4.973  24.068   3.268  0.2586  0.0694 -0.1133
31967W        W63183  24.123  26.889   0.916  0.5557  0.0506 -0.0881
31968W        W63184   3.903   5.614  10.192  0.1621  0.0987 -0.1265
31969W        W63185  10.743  21.218   1.949 -0.2393 -0.1943 -0.4375
31970W        W63186   4.687  14.996   9.696 -0.0810  0.0182 -0.0919
31971W        W63187  23.192  26.012   1.039 -0.1022 -0.0560 -0.0061
31972W        W63188   9.865   0.534   9.786  0.2355 -0.3472 -0.1639
31973W        W63189  25.768  17.081  10.346 -0.0627 -0.2911  0.1699
31974W        W63190  14.994  13.876   7.894 -0.1347  0.3218 -0.0968
31975W        W63191  11.386  21.825   9.206  0.4491 -0.3128  0.2465
31976W        W63192  15.619  15.291   7.666  0.1781 -0.0691  0.0696
31977W        W63193  10.205   3.400   7.596 -0.1842 -0.0405 -0.1157
31978W        W63194  26.305   5.396   3.161 -0.3991  0.0720  0.4681
31979W        W63195   1.453  11.638   1.182 -0.2585 -0.2205  0.1239
31980W        W63196  13.549  25.938   3.137  0.0081 -0.2346 -0.2069
31981W        W63197   7.355  12.925   2.972  0.2324  0.0973 -0.0619
31982W        W63198   6.811  16.930   0.141  0.0724  0.1120  0.0410
31983W        W63199   1.494  25.833   8.938 -0.0501  0.0764 -0.2378
31984W        W63200  19.316  20.525  10.236  0.0961 -0.0484  0.0225
31985W        W63201  11.862  21.970   2.912 -0.3765 -0.0691 -0.2861
31986W        W63202   7.819  26.005   2.735  0.1440  0.1483 -0.1337
31987W        W63203  18.827   9.158   1.468 -0.0816  0.0560 -0.3094
31988W        W63204   7.391   6.243   8.751 -0.3929  0.1124  0.1189
31989W        W63205  20.395  15.312   9.768  0.0471  0.0597  0.0291
31990W        W63206  10.085   8.734   8.722 -0.1953 -0.0948  0.0606
31991W        W63207  11.277  10.740   1.213 -0.1650  0.2912 -0.0479
31992W        W63208  18.437  26.282  10.062  0.4050  0.0034 -0.2144
31993W        W63209  24.107  20.136   8.964  0.1605  0.2983  0.1577
31994W        W63210  18.896  11.911   1.540  0.0111  0.2694 -0.1308
31995W        W63211   9.778  16.071   7.777  0.1214 -0.1709  0.2009
31996W        W63212   4.903  16.905   1.118 -0.0381 -0.1812 -0.2857
31997W        W63213   5.948  12.186   0.396  0.2647  0.1064 -0.1536
31998W        W63214  10.372   9.742   3.139  0.2690 -0.1176  0.0893
31999W        W63215  13.818   4.042   2.449 -0.0533  0.1780 -0.1953
32000W        W63216  23.142  18.054   7.988  0.0191 -0.1983  0.2671
32001W        W63217   8.253  23.486  10.374 -0.1806  0.1410 -0.1007
32002W        W63218   0.355  23.386   2.041  0.0897  0.0599 -0.3097
32003W        W63219  20.042  16.775   0.480  0.2226  0.0542 -0.0722
32004W        W63220  23.203   0.424   9.436  0.5375  0.3802 -0.1588
32005W        W63221  10.584  22.466   0.523  0.1393 -0.3365  0.0630
32006W        W63222  21.118   6.251   9.162  0.1481 -0.0361  0.2565
32007W        W63223   0.092   2.019   2.481  0.2000 -0.1411  0.1917
32008W        W63224   0.245   6.503  10.361  0.4653  0.2587 -0.1732
32009W        W63225  10.176  25.121   1.964  0.1683  0.1735  0.5275
32010W        W63226   7.517  18.263   8.222  0.1273 -0.2306  0.2254
32011W        W63227   0.674  27.173   1.464 -0.6084 -0.1027 -0.1242
32012W        W63228   4.031   5.205   8.071  0.0625  0.2609 -0.1196
32013W        W63229  24.841  19.764   7.298  0.3473  0.0875 -0.1244
32014W        W63230  12.086  13.424   8.190 -0.1345  0.0480 -0.0200
32015W        W63231   0.615   8.990   0.644 -0.2496 -0.1867  0.2569
32016W        W63232  14.835   8.878  10.265 -0.1579 -0.2240 -0.1833
32017W        W63233  25.817   5.131   9.491 -0.1434  0.1639 -0.0735
32018W        W63234  24.541  13.348   4.098 -0.0468  0.0191 -0.2985
32019W        W63235  10.924   1.631   2.444  0.3000  0.1395  0.0468
32020W        W63236  20.679   0.743   0.214  0.0286  0.1776 -0.2079
32021W        W63237  14.281  11.861   0.162  0.2742  0.2382 -0.1589
32022W        W63238   6.392  20.670   8.017  0.4322 -0.2395 -0.0277
32023W        W63239  12.651   8.697   0.572 -0.1933  0.0655 -0.0474
32024W        W63240   2.165  14.211   1.196 -0.2056 -0.3395  0.3255
32025W        W63241  15.469  12.555   8.905 -0.0455  0.0372 -0.2410
32026W        W63242  13.783  22.601   0.030 -0.2347 -0.2115 -0.1175
32027W        W63243   6.001   0.423   3.225 -0.0793 -0.0272  0.2342
32028W        W63244  22.482   1.693   0.836  0.2630 -0.0221  0.4342
32029W        W63245  10.587  14.032   7.642 -0.2478  0.0567 -0.1160
32030W        W63246  25.332   6.535   1.654 -0.2558 -0.3182  0.2832
32031W        W63247  11.000  25.029   1.938 -0.1642 -0.3126 -0.1611
32032W        W63248   9.429   5.018   0.291 -0.2062 -0.0709 -0.3657
32033W        W63249  19.318   7.180   1.593 -0.1352 -0.2651 -0.0171
32034W        W63250  27.261   3.137   8.509  0.0239  0.1256  0.4056
32035W        W63251   2.517   6.317   3.240  0.0380 -0.1196  0.2414
32036W        W63252  22.664   4.532  10.433 -0.0622 -0.0496 -0.0719
32037W        W63253  23.991  16.528   8.889  0.0825 -0.2729  0.0939
32038W        W63254  24.689  20.426   0.444 -0.1564  0.1611  0.1818
32039W        W63255  23.249  24.726   7.138 -0.2229  0.1551 -0.1490
32040W        W63256   7.210  16.102   0.314  0.2944  0.0842  0.0956
32041W        W63257  21.875   5.494   3.005  0.1048  0.1701  0.0922
32042W        W63258   1.498  27.467   3.763 -0.0414  0.1662  0.1459
32043W        W63259  17.710  19.666   2.721 -0.3575 -0.1225  0.0472
32044W        W63260  20.691  20.277   2.122 -0.1086 -0.0415  0.0209
32045W        W63261   0.195   7.519   8.091 -0.3185 -0.1806  0.1525
32046W        W63262   7.876   8.648   9.165 -0.1126  0.3592  0.1784
32047W        W63263   9.502  26.135   7.513  0.2540 -0.1359 -0.1340
32048W        W63264  16.046   4.301   2.478 -0.0475  0.1084 -0.1571
32049W        W63265  18.913   1.446   9.335  0.3034 -0.0464  0.2302
32050W        W63266  12.881   3.350  10.367 -0.1397 -0.2132  0.0476
32051W        W63267   4.992   6.392   2.461 -0.1290 -0.1456  0.1514
32052W        W63268   8.260  22.920   8.405 -0.0036  0.2028 -0.0232
32053W        W63269   9.969   8.271   8.649  0.2048  0.0820 -0.1262
32054W        W63270   5.947  16.597   1.802 -0.0359 -0.0672  0.1901
32055W        W63271  13.127   4.132   3.035 -0.0523  0.0348  0.1750
32056W        W63272  16.950  14.797   0.355  0.2899  0.0269 -0.0670
32057W        W63273  20.533   3.578   9.967 -0.3202 -0.3849 -0.1107
32058W        W63274  13.906  23.163   1.075 -0.2089 -0.4105 -0.0521
32059W        W63275  12.179  24.650   9.963  0.2336  0.2050 -0.0592
32060W        W63276  14.462   4.115   0.438  0.0112  0.3016  0.1364
32061W        W63277   7.288  13.632   1.091 -0.0456  0.0144 -0.3279
32062W        W63278   7.579  10.708   0.100 -0.0374  0.2663 -0.0134
32063W        W63279  20.769   4.936   3.155 -0.2176 -0.2350 -0.0023
32064W        W63280  22.023  23.709   0.406  0.3835 -0.0614 -0.2386
32065W        W63281  22.782  22.680   1.977 -0.0887 -0.2457  0.0794
32066W        W63282  23.512  15.053   7.205 -0.1366  0.1002  0.2780
32067W        W63283  14.436  23.792   8.056  0.0918 -0.1730 -0.0128
32068W        W63284  12.807  19.093   9.625 -0.2551  0.2858 -0.0756
32069W        W63285   8.793  19.274   1.766  0.1380  0.2325  0.0990
32070W        W63286  22.288   2.198   9.897 -0.0350 -0.0019 -0.1698
32071W        W63287  14.823   7.056   8.100  0.1485 -0.2225 -0.0338
32072W        W63288  20.580   7.309   3.100 -0.1417  0.1549 -0.1140
32073W        W63289   1.696  25.516   3.149 -0.1473  0.2288  0.1766
32074W        W63290  22.574  19.910   9.457  0.3390 -0.0630 -0.0903
32075W        W63291   7.093  13.779   8.164 -0.2000 -0.0000 -0.1595
32076W        W63292  23.291  15.767   2.930  0.0067  0.0495 -0.2068
32077W        W63293  26.081  12.852   8.613  0.2120 -0.1658 -0.0649
32078W        W63294  12.422   5.961   0.962  0.0914  0.0391  0.1258
32079W        W63295  23.287  24.191   3.641  0.0917 -0.0979 -0.0575
32080W        W63296  10.765  16.172   8.953  0.0989  0.2666 -0.0003
32081W        W63297  16.191  25.846   2.427  0.4078  0.2136  0.1497
32082W        W63298  27.341   7.382   9.745 -0.1213  0.1151  0.1552
32083W        W63299  24.183  20.417   1.516  0.0405  0.0265  0.3639
32084W        W63300  27.379  19.152   3.281  0.0192  0.3809 -0.0053
32085W        W63301   2.708  13.720   8.457  0.0877 -0.1330 -0.0606
32086W        W63302  22.509   5.396   8.096 -0.2222 -0.0692 -0.0435
32087W        W63303  23.845  15.120   9.869  0.3502 -0.0364  0.2025
32088W        W63304   2.975  18.478   0.122  0.1712 -0.0771  0.0191
32089W        W63305  17.618  18.330   4.002  0.1184  0.0700 -0.3372
32090W        W63306  22.124  10.312  10.289  0.1921 -0.1447 -0.1348
32091W        W63307   4.832   4.182   0.973  0.1446  0.0446  0.2058
32092W        W63308  27.507   3.504   8.355  0.1272  0.1328  0.2044
32093W        W63309   4.900  10.341   8.442 -0.1666 -0.1458 -0.0948
32094W        W63310  16.852  11.822  10.296  0.1892  0.1638  0.1544
32095W        W63311  24.161   4.018   9.797 -0.0345 -0.0462 -0.0294
32096W        W63312  18.322   7.770   9.776  0.1382 -0.0147  0.1063
32097W        W63313  11.796   3.219   7.878 -0.1775  0.1414 -0.1445
32098W        W63314   2.356  26.547   0.419  0.1517 -0.2839 -0.3066
32099W        W63315  25.110   0.448   9.586  0.2171 -0.1084  0.1463
32100W        W63316  24.266   5.351   1.915 -0.1643  0.1674 -0.0659
32101W        W63317  26.371   9.700   9.176  0.2315  0.2201  0.2567
32102W        W63318  11.197  20.921   3.750 -0.2205  0.1677 -0.0041
32103W        W63319  23.097   0.582   0.455  0.0029  0.0642  0.4055
32104W        W63320  12.459  18.720   7.551  0.1009 -0.2875 -0.0205
32105W        W63321   8.601  17.740   2.638 -0.0258 -0.2176 -0.0858
32106W        W63322   1.011  20.287   1.188 -0.0424  0.1084 -0.1250
32107W        W63323   0.904  15.825   0.179 -0.1694 -0.1040 -0.2268
32108W        W63324  17.912  16.606   0.172 -0.0569 -0.1035 -0.3304
32109W        W63325   7.934  14.263   8.890  0.1351 -0.0944  0.1143
32110W        W63326   7.081   0.564   1.891  0.0971 -0.0068  0.0468
32111W        W63327  11.325   3.105  10.426 -0.3719 -0.1063 -0.0916
32112W        W63328   4.706  18.753   8.893 -0.1689 -0.1222  0.0883
32113W        W63329   1.432  23.255   8.726  0.0122  0.0837  0.2380
32114W        W63330  12.545  16.639   0.214 -0.1021 -0.2915 -0.0167
32115W        W63331  22.661   2.939  10.423  0.2463 -0.2830 -0.1215
32116W        W63332   5.741  14.261   8.624 -0.1316 -0.3283  0.2708
32117W        W63333   0.679  13.829   8.530 -0.0079 -0.2373 -0.1754
32118W        W63334   6.485   6.263   1.479  0.2417 -0.1829  0.0320
32119W        W63335   0.407  16.668   9.934 -0.2352 -0.0556  0.1103
32120W        W63336   8.548  11.710   7.003 -0.0626  0.0212  0.1689
32121W        W63337  17.974   1.695   2.181  0.0779  0.0425  0.1960
32122W        W63338  10.569  15.939   7.227  0.0166  0.1691  0.1368
32123W        W63339   4.948  12.679   3.402 -0.0594  0.0064 -0.0568
32124W        W63340   8.314   5.016   1.692  0.2224  0.0018  0.0370
32125W        W63341   5.563   7.010   2.789 -0.1312 -0.0465  0.1799
32126W        W63342  22.797  19.871   0.246 -0.0683 -0.0694 -0.0602
32127W        W63343  23.300  24.443   9.433 -0.0205 -0.0248  0.0881
32128W        W63344   8.932  11.820   3.456 -0.2167 -0.0816  0.0668
32129W        W63345   8.810  26.850   9.402 -0.1584  0.2066  0.0633
32130W        W63346  19.775  13.069  10.338  0.1611  0.2412  0.0499
32131W        W63347  23.266  25.008   8.479  0.1249  0.1994 -0.0251
32132W        W63348  10.614   2.922   0.349  0.1167 -0.0857 -0.3647
32133W        W63349  21.235   9.071   1.748 -0.0967 -0.0077  0.1570
32134W        W63350  23.298  16.147   1.740  0.1959 -0.0586  0.0717
32135W        W63351  10.768  27.247   0.125 -0.3804 -0.2575 -0.1271
32136W        W63352  16.039  12.354   0.615  0.0363  0.1209 -0.0497
32137W        W63353  10.923  21.316   1.424 -0.0177  0.2300 -0.0046
32138W        W63354   7.165   5.740   0.088 -0.1234 -0.0352 -0.0915
32139W        W63355  25.811   2.423   8.129 -0.0912  0.1894 -0.1605
32140W        W63356   1.530  20.574   0.191  0.2253  0.0231 -0.1166
32141W        W63357  10.510  22.551   8.415  0.2741 -0.0012 -0.2321
32142W        W63358  26.341  22.343   0.321 -0.1121 -0.0386 -0.1250
32143W        W63359  17.367   7.060   8.180  0.3069  0.2023 -0.0347
32144W        W63360   6.234  26.467  10.317 -0.3463 -0.2155  0.0563
32145W        W63361  18.437  20.362   3.571  0.2751  0.1412 -0.2006
32146W        W63362  22.417  12.662   3.421  0.0103  0.0185 -0.3420
32147W        W63363  18.362  13.946   7.632  0.3629 -0.1838  0.0452
32148W        W63364  19.701  17.763   9.466 -0.0170 -0.1023 -0.1531
32149W        W63365  16.733   1.066   9.720  0.1901  0.2073  0.2764
32150W        W63366  25.816   7.718   7.793  0.3038 -0.2497  0.0712
32151W        W63367   6.799  14.043   8.655  0.0070  0.1523 -0.0548
32152W        W63368  23.877  22.679   1.690  0.0925  0.0154 -0.1705
32153W        W63369   3.337   2.719  10.539  0.4782  0.0251 -0.0475
32154W        W63370  13.321   6.684   1.724  0.1031  0.1298  0.1872
32155W        W63371  15.868   2.263   8.502  0.0850  0.3006  0.0760
32156W        W63372  26.401  11.657   0.899  0.1239 -0.2102 -0.2193
32157W        W63373   2.589  25.618   8.099 -0.1081  0.1436 -0.0524
32158W        W63374  10.241  12.355   3.164  0.1690 -0.0223 -0.0312
32159W        W63375  17.058  26.214  10.383  0.0224  0.0644 -0.0807
32160W        W63376   5.381  14.638   8.873  0.2925 -0.2661 -0.1435
32161W        W63377   1.210  24.668   8.991 -0.0518  0.3659 -0.1878
32162W        W63378  22.467  19.679   3.134  0.1755 -0.3659  0.3457
32163W        W63379  24.096  12.733   9.565 -0.0219 -0.0730 -0.1068
32164W        W63380   7.572  18.585   1.294  0.0393 -0.1610  0.1504
32165W        W63381  25.533  16.492   8.537 -0.0181  0.1333 -0.1242
32166W        W63382   6.340  17.415   3.417  0.3999 -0.1750  0.0579
32167W        W63383  19.230   9.412   0.812 -0.0017 -0.0672  0.1534
32168W        W63384  11.009   0.795   3.618 -0.0077  0.4449  0.0259
32169W        W63385  12.725  17.010   8.138  0.1510  0.1647 -0.5318
32170W        W63386   2.745   1.389   3.122 -0.0816 -0.0461 -0.1420
32171W        W63387   5.506  10.713   9.842 -0.1969 -0.2823 -0.0604
32172W        W63388   8.565  10.028   0.188  0.0284 -0.1406 -0.0154
32173W        W63389  16.071  19.655   0.738  0.3075  0.1382 -0.0221
32174W        W63390  17.289  23.897   8.575 -0.2431  0.0447 -0.2245
32175W        W63391  21.720   0.165   3.581 -0.2353  0.1643 -0.0770
32176W        W63392  23.021  23.999   1.400  0.1410 -0.0171 -0.4832
32177W        W63393  15.813  14.875   8.265 -0.0883  0.0418  0.0329
32178W        W63394  13.756  27.082   2.129 -0.0927  0.1667  0.2552
32179W        W63395  13.307   7.010   0.239  0.0971  0.0506 -0.0042
32180W        W63396  20.851  24.422   0.095 -0.1268 -0.1096  0.0104
32181W        W63397  12.576  10.955   1.026  0.3568  0.0129 -0.0579
32182W        W63398  17.888   9.708   0.510  0.2070 -0.1196 -0.1843
32183W        W63399  18.931  26.726   8.831 -0.0223 -0.0542 -0.2383
32184W        W63400   6.963   1.410   0.265  0.2394 -0.0794  0.0008
32185W        W63401   6.105   9.418   8.439  0.1533 -0.2583 -0.0621
32186W        W63402  22.250   6.378   9.227 -0.5292  0.0403  0.0512
32187W        W63403   5.244  26.442   2.553 -0.2664  0.0961 -0.0633
32188W        W63404  20.714  10.078   0.979  0.2620 -0.0024  0.1141
32189W        W63405  15.461   7.598   0.082 -0.1434  0.1107 -0.1082
32190W        W63406  11.456  13.270   2.674  0.1385 -0.0372  0.0049
32191W        W63407  25.981  16.011   3.036 -0.1393 -0.0104  0.0151
32192W        W63408   0.928   4.403   9.053  0.1773 -0.0438  0.1810
32193W        W63409   2.331  12.487   8.846 -0.0872 -0.1294 -0.0405
32194W        W63410  17.935   8.930   9.979  0.0325 -0.3074  0.0399
32195W        W63411   9.317  14.320   8.747 -0.1009 -0.0335 -0.2736
32196W        W63412   8.476  14.907  10.007  0.4433  0.1907 -0.0722
32197W        W63413   1.189  18.499   1.228  0.1272  0.0499  0.2210
32198W        W63414  23.035   6.838   2.459 -0.0053 -0.1189 -0.0111
32199W        W63415  22.422   1.611  10.375 -0.0916 -0.0429  0.0553
32200W        W63416   8.134   4.025   1.059  0.3216  0.0662 -0.2976
32201W        W63417   3.435  14.083   9.080  0.3337  0.0417 -0.0152
32202W        W63418   8.560  23.367   8.232 -0.1688  0.0280 -0.0466
32203W        W63419   1.539  22.515   1.448 -0.2388  0.1216  0.1005
32204W        W63420  16.389  13.361   1.878 -0.3894 -0.0691 -0.0147
32205W        W63421   7.944  19.757   7.879  0.0210 -0.2547  0.1889
32206W        W63422  21.359  19.553   9.480 -0.2205 -0.0808  0.0060
32207W        W63423  10.348   4.137   8.899 -0.0677 -0.2624  0.0785
32208W        W63424  18.375  17.469   9.355  0.0163 -0.0297  0.3492
32209W        W63425  19.270   5.429   7.978  0.2189  0.0931 -0.2804
32210W        W63426  23.554  11.431   2.565 -0.0254  0.1551  0.3283
32211W        W63427   7.740   8.816   1.008 -0.3429 -0.2441 -0.0304
32212W        W63428  15.315   4.152   9.902 -0.0508  0.1756 -0.0033
32213W        W63429  22.289  10.850   0.325  0.0337  0.0401  0.1683
32214W        W63430   3.554  17.900   1.606  0.0229 -0.0674 -0.1776
32215W        W63431   0.064   5.856   1.534  0.0658  0.0210 -0.0675
32216W        W63432   1.112  19.360  10.359 -0.2604  0.0760 -0.0818
32217W        W63433   6.548  14.998   7.616 -0.2390 -0.0341  0.1350
32218W        W63434   9.779  24.970   3.102 -0.1421  0.2003  0.0966
32219W        W63435  23.476   5.572   9.013 -0.1867  0.1997  0.0063
32220W        W63436  14.030  26.092   1.354  0.4043 -0.0663 -0.1082
32221W        W63437   7.271  25.465   2.305 -0.0860  0.0557 -0.0565
32222W        W63438   9.364  24.140   3.191  0.1910 -0.0466  0.0374
32223W        W63439  12.261  10.908   0.079  0.2671  0.1574 -0.1835
32224W        W63440   9.852  26.564   8.789 -0.1544 -0.0180  0.0919
32225W        W63441   2.698   4.991   8.373  0.0686  0.1570  0.0440
32226W        W63442  25.125  23.440   1.765  0.0245  0.1030 -0.2295
32227W        W63443  14.821  21.678   3.784  0.1573 -0.0424 -0.0234
32228W        W63444   0.305   3.861   0.099  0.2318 -0.2769  0.1040
32229W        W63445  25.112  13.643   2.279  0.1214 -0.0834 -0.1940
32230W        W63446  19.605  12.359   9.659  0.0466 -0.1468  0.2264
32231W        W63447   3.116  21.150   8.865 -0.2359 -0.1224 -0.0543
32232W        W63448  14.768  10.034   0.436 -0.2593 -0.3166  0.1827
32233W        W63449  24.498   5.159   3.103  0.0203 -0.0950  0.3074
32234W        W63450  20.215   6.111   9.109  0.1092  0.1515  0.2812
32235W        W63451  13.256  20.180   3.172  0.0849 -0.0008  0.0400
32236W        W63452   7.052   4.050   9.891 -0.1063  0.1832 -0.0916
32237W        W63453   0.047  22.057   2.153  0.1115 -0.4261  0.2371
32238W        W63454  13.790  20.894   1.493 -0.0528 -0.0771  0.1190
32239W        W63455   3.418  10.550   1.967 -0.2242  0.0466  0.3900
32240W        W63456  10.540  23.513   8.793 -0.0633  0.3033  0.2159
32241W        W63457   9.393  24.586   2.339  0.1427 -0.3250 -0.0190
32242W        W63458  11.584  21.106   0.151  0.2307  0.0047  0.2420
32243W        W63459  24.066   6.238   9.653 -0.3407  0.0182 -0.1843
32244W        W63460  10.924   2.761   9.525  0.0105  0.0085  0.1344
32245W        W63461  21.721  24.727   0.339 -0.3493  0.0342  0.2070
32246W        W63462  22.227  27.102   7.661  0.0032 -0.0673  0.0438
32247W        W63463  27.021  17.950   3.054 -0.0147 -0.0741  0.0939
32248W        W63464   5.348   1.271   8.600  0.0134 -0.1638  0.5658
32249W        W63465   0.984  13.612   2.329  0.3477 -0.4142 -0.0685
32250W        W63466  20.707  16.020   7.534 -0.1476  0.1944  0.1142
32251W        W63467  10.300  20.346   8.724 -0.3029  0.1362  0.0623
32252W        W63468  14.086  16.358  10.108 -0.1785  0.3578  0.3099
32253W        W63469  24.160   9.782   2.734  0.2465  0.1161  0.1164
32254W        W63470   1.269  24.640   9.490 -0.0669  0.0983  0.0320
32255W        W63471   7.893  20.185   7.494  0.2467 -0.1203  0.0275
32256W        W63472  13.391  20.022  10.368 -0.0261  0.3891  0.0951
32257W        W63473  26.331  14.727   8.259 -0.1729 -0.0536  0.0626
32258W        W63474   1.395  10.505   0.509  0.0006  0.3396 -0.0205
32259W        W63475   1.146  16.519   1.274 -0.0442  0.0755  0.2087
32260W        W63476  20.712   9.519   1.130 -0.1333 -0.0929  0.0632
32261W        W63477   7.496  12.212   8.385 -0.1560  0.0213  0.2030
32262W        W63478   7.760  14.608   0.927 -0.0280 -0.1522  0.2327
32263W        W63479  17.321  25.474   8.795  0.3438 -0.1303  0.2085
32264W        W63480  17.282  18.459   0.974  0.0534 -0.0502  0.0198
32265W        W63481  14.876  14.341   9.555 -0.1700 -0.1089 -0.1704
32266W        W63482   2.773  22.571   1.103  0.0947  0.2766  0.0450
32267W        W63483  22.369  11.912   8.960  0.1443  0.0821  0.3640
32268W        W63484  12.764  10.847  10.125 -0.1481  0.3217 -0.0911
32269W        W63485  22.202   5.815   8.342 -0.4881 -0.1012  0.4031
32270W        W63486   0.632   5.243   8.980 -0.0659  0.1231 -0.1057
32271W        W63487  23.182  16.003  10.173 -0.0701  0.0403 -0.2466
32272W        W63488   2.327   6.855   1.242  0.2422  0.2459 -0.0376
32273W        W63489   3.004  14.982   7.561  0.3669 -0.1809  0.1057
32274W        W63490   6.538   4.403   2.848 -0.2235  0.0804 -0.4872
32275W        W63491  20.997  23.821   8.532  0.4804  0.0637 -0.1950
32276W        W63492   5.300   1.486   1.180 -0.0917  0.1859 -0.1716
32277W        W63493   1.903  11.193   8.901 -0.2925  0.2236 -0.2172
32278W        W63494  15.997  20.949   0.594  0.1095  0.2120  0.0923
32279W        W63495  16.097  11.081   0.889 -0.1109  0.0226 -0.0056
32280W        W63496  14.339  26.536  10.086 -0.2689  0.0961 -0.0424
32281W        W63497  21.131  19.304  10.272  0.0514 -0.0538  0.1831
32282W        W63498   9.309   1.042   2.171 -0.2029 -0.0331 -0.1021
32283W        W63499  20.242  26.220   2.409  0.0565 -0.0073 -0.0891
32284W        W63500  20.231  16.698  10.265 -0.0487 -0.0109 -0.0445
32285W        W63501  27.163  20.499  10.037  0.2281 -0.2117 -0.0252
32286W        W63502  26.127  21.155   2.679 -0.0013 -0.0742  0.0910
32287W        W63503  26.434  19.573   2.425 -0.1145  0.0325 -0.0179
32288W        W63504   7.338  18.226   3.526  0.3062 -0.3040  0.1759
32289W        W63505  20.342   8.812   8.165  0.0775  0.1033  0.1426
32290W        W63506  12.041   7.858   8.926 -0.1144 -0.2653 -0.0331
32291W        W63507  21.238   2.234   0.102 -0.1489  0.1531 -0.1975
32292W        W63508   2.942   8.609   2.664  0.3105 -0.1663  0.2916
32293W        W63509  14.826  27.408   1.417  0.1692 -0.0161  0.2238
32294W        W63510  23.535   5.088   8.400 -0.1187  0.0867 -0.5000
32295W        W63511  18.937   1.501   1.707 -0.0421  0.0184 -0.0742
32296W        W63512   2.909   8.796   3.210 -0.1820 -0.1835 -0.1958
32297W        W63513  18.411   9.649   0.684  0.0707 -0.0277  0.0310
32298W        W63514   6.714   4.464   1.138  0.1479  0.1234 -0.1314
32299W        W63515   2.748   9.087   2.838  0.1896  0.1467 -0.0945
32300W        W63516  23.334   2.736   8.510  0.2438  0.1240 -0.1721
32301W        W63517  26.194   3.995   8.817  0.1141  0.3434  0.1940
32302W        W63518  13.691  16.441   1.399 -0.1431 -0.4792 -0.2297
32303W        W63519  27.221  14.135   0.773  0.0270  0.0320 -0.0410
32304W        W63520   4.380  15.155   7.250 -0.0447 -0.0455  0.0969
32305W        W63521   6.743  22.066   3.148  0.0646 -0.2592 -0.1152
32306W        W63522  16.415   9.352   8.631  0.2136  0.0034  0.1081
32307W        W63523  24.923   7.703   2.468  0.0249  0.2612 -0.1190
32308W        W63524  20.694  22.600   8.930 -0.4579 -0.1232 -0.2851
32309W        W63525  24.171   1.045   0.591 -0.2245 -0.0716  0.0423
32310W        W63526  15.850  18.776   1.873 -0.0919 -0.0577 -0.4043
32311W        W63527  13.643  15.167   2.140 -0.1852 -0.2358 -0.0549
32312W        W63528  23.713  25.044   7.126  0.0527 -0.1508 -0.4553
32313W        W63529   5.205   4.006   7.741 -0.0685  0.1095 -0.2779
32314W        W63530  10.952   7.388   8.082 -0.0447 -0.2148 -0.1201
32315W        W63531  13.274  20.907   2.743 -0.0821 -0.0371 -0.0451
32316W        W63532  16.193  12.971   3.292 -0.1102  0.3338  0.1948
32317W        W63533   1.730  18.467   8.191  0.0734 -0.3485  0.0115
32318W        W63534   8.649  27.556   7.546  0.1202 -0.0477 -0.1728
32319W        W63535  12.571  24.789   9.701 -0.1485  0.1047 -0.0645
32320W        W63536  23.297  13.981   2.329  0.0784  0.3936 -0.0800
32321W        W63537   9.326  23.092  10.272  0.2173  0.4447 -0.0778
32322W        W63538  13.311   2.137   3.781 -0.1983 -0.2041  0.1976
32323W        W63539   2.425  12.301  10.320 -0.2296 -0.2351 -0.1440
32324W        W63540   8.054  14.992   8.094  0.0498  0.1798  0.2016
32325W        W63541  10.025   7.389   9.640  0.0467  0.1750 -0.0006
32326W        W63542  22.067  16.116   2.344  0.0234  0.2672 -0.1135
32327W        W63543  16.802  17.087   0.721  0.3280  0.1117  0.1394
32328W        W63544  17.027   7.647   9.549  0.0293  0.2474  0.3403
32329W        W63545   7.991   9.236   0.788  0.3127  0.1057 -0.1874
32330W        W63546  17.480  23.329   0.214  0.0080 -0.0888  0.1183
32331W        W63547   4.097  11.151   3.284 -0.0671 -0.1444  0.3316
32332W        W63548  24.943  23.873   1.592 -0.2693 -0.0925  0.2442
32333W        W63549  13.920  21.886   0.551  0.1191  0.0497  0.0588
32334W        W63550  14.421  14.851   0.905 -0.1474  0.1396  0.0948
32335W        W63551  26.798  15.398   1.694  0.2025 -0.1904 -0.2233
32336W        W63552   2.880  16.518   8.595  0.2823  0.1228 -0.1026
32337W        W63553   7.225  18.472   1.726  0.1035 -0.1935  0.0301
32338W        W63554  10.322   2.838   9.634  0.0098  0.2667  0.1912
32339W        W63555   2.504  27.606   0.302  0.3321  0.2586  0.2102
32340W        W63556  15.240   7.194   1.108 -0.2796  0.1989 -0.1292
32341W        W63557   2.423   7.201   0.486 -0.1293  0.1877 -0.1413
32342W        W63558  16.378   1.533   2.000  0.2740 -0.0674  0.1473
32343W        W63559  25.191  22.659   8.825  0.2026  0.0216 -0.2945
32344W        W63560   5.867  25.358   0.244  0.2649  0.0308  0.2427
32345W        W63561   3.525  17.033   3.173  0.2177  0.0140  0.1337
32346W        W63562  23.428  25.082   0.180 -0.5695  0.0368  0.0047
32347W        W63563  27.500  17.096   0.600 -0.1004  0.0643  0.1544
32348W        W63564   0.798  21.100   0.774 -0.1113  0.1809 -0.1056
32349W        W63565  20.674   1.498   2.105  0.2352  0.0808 -0.2626
32350W        W63566  21.801  11.290   0.834  0.4163 -0.1478  0.0792
32351W        W63567  27.367  15.160   2.421  0.0632 -0.0065  0.1958
32352W        W63568   4.141   5.271   3.363  0.2189  0.2415  0.0101
32353W        W63569   9.186   7.848   8.751 -0.2351 -0.1574  0.0719
32354W        W63570  22.966  17.082  10.382  0.0447 -0.0523 -0.0496
32355W        W63571   7.870  20.633   1.032  0.1657  0.3931 -0.0133
32356W        W63572  25.216  21.850   2.915 -0.0494  0.3263  0.3294
32357W        W63573   4.015  25.195   1.638 -0.0396 -0.0464 -0.1672
32358W        W63574  15.226   8.168   8.861  0.0266  0.0135  0.0303
32359W        W63575  25.380   9.362   2.246  0.3800  0.0304  0.0223
32360W        W63576  10.802  20.846   0.076 -0.1116 -0.2182  0.1299
32361W        W63577   4.994  15.706   0.358  0.2609 -0.2755  0.1736
32362W        W63578  26.945  11.857   9.051 -0.1138  0.0419 -0.2099
32363W        W63579  10.327   6.516   9.341 -0.3319  0.0055  0.0446
32364W        W63580  12.990  21.274   8.382 -0.2059  0.0393 -0.1022
32365W        W63581  13.904  13.130   0.825 -0.2050  0.3322  0.0542
32366W        W63582  27.452  10.738   2.458 -0.4866 -0.0003 -0.3168
32367W        W63583  14.067  24.073   1.329  0.0412  0.0271  0.2612
32368W        W63584  16.671   4.047  10.064 -0.0220 -0.0986 -0.1518
32369W        W63585   8.642  23.117   8.705 -0.0233 -0.0953 -0.2848
32370W        W63586  17.927   0.897   9.479 -0.3663 -0.1699 -0.0536
32371W        W63587  20.658  18.600   8.520 -0.1390 -0.1280  0.1630
32372W        W63588   3.878   8.700   1.864 -0.0293 -0.3573  0.1693
32373W        W63589  16.938   6.299   1.582  0.1894  0.5946 -0.0912
32374W        W63590  21.114   7.125   9.728  0.0644 -0.0208  0.0795
32375W        W63591  17.270  22.939   7.655 -0.2241 -0.0725  0.0716
32376W        W63592   8.916   5.329   0.189 -0.1111  0.4195 -0.0729
32377W        W63593  20.457  15.687   0.208  0.1895  0.1075 -0.3247
32378W        W63594  17.759  10.293   2.298 -0.2027 -0.4415 -0.1420
32379W        W63595  14.207   1.455   9.848 -0.0092 -0.5329  0.1609
32380W        W63596   8.828  26.582   0.374 -0.0939  0.0067  0.1307
32381W        W63597   2.253   8.771   1.845 -0.0981  0.0148  0.0382
32382W        W63598  23.915  13.428   8.427  0.2592  0.0767 -0.1778
32383W        W63599  12.375   9.176   4.270 -0.1021 -0.2291  0.2927
32384W        W63600   0.297   9.588   0.178  0.1624  0.1197  0.0297
32385W        W63601   5.696  20.081   0.513  0.0548  0.0530 -0.2651
32386W        W63602   2.766  17.517   8.643 -0.0738  0.0027 -0.0316
32387W        W63603  24.288  26.668   1.333 -0.0858  0.0677 -0.0466
32388W        W63604  22.449  26.893   0.487 -0.1193 -0.0790  0.0393
32389W        W63605  15.355  16.614   2.269  0.0497  0.0072 -0.1061
32390W        W63606  10.952   1.367   7.792  0.0399  0.0650 -0.4135
32391W        W63607  24.596  25.646   0.029  0.1224  0.0354 -0.2392
32392W        W63608  21.447  18.524   9.207 -0.2599 -0.1911  0.1342
32393W        W63609   1.164  21.839   7.789 -0.0895 -0.0287 -0.1491
32394W        W63610  22.986  21.393   7.268  0.2012  0.2029  0.1668
32395W        W63611   5.748   0.554   0.376 -0.0901 -0.0855 -0.1692
32396W        W63612   6.645   1.886   1.358  0.2287 -0.2204  0.0638
32397W        W63613   2.753   7.638   0.440 -0.0986  0.0967 -0.3060
32398W        W63614   8.627   8.826  10.343  0.1896 -0.0964 -0.2261
32399W        W63615  15.100  13.102   2.617 -0.0471 -0.1052 -0.0255
32400W        W63616  25.055  18.743   2.119 -0.1466 -0.0851 -0.3906
32401W        W63617   7.355   3.855   0.499  0.3087 -0.1024 -0.1007
32402W        W63618  17.487  18.963   1.862  0.0119 -0.0043  0.0544
32403W        W63619   0.812   9.603   1.131  0.1339  0.2806  0.1569
32404W        W63620  19.237  10.574   8.822  0.2337 -0.1109  0.1428
32405W        W63621   8.175   2.624   0.992 -0.2278 -0.0449  0.0190
32406W        W63622  21.600  24.451   8.039  0.0711 -0.1453 -0.0309
32407W        W63623  21.546   7.068   0.946 -0.0031 -0.0079 -0.0117
32408W        W63624   2.329  23.797   9.910  0.0474  0.0044  0.0636
32409W        W63625   3.361   4.857   2.404  0.1120 -0.0544  0.2607
32410W        W63626  11.891  13.788   7.227 -0.1196  0.1360 -0.2060
32411W        W63627   8.977  15.137   1.507  0.1960 -0.2849  0.1578
32412W        W63628  20.890  11.099   0.870  0.0497 -0.0486 -0.1659
32413W        W63629   1.236  18.764   2.892 -0.0524  0.0720  0.2834
32414W        W63630   0.559   0.829   9.618 -0.0156 -0.2620  0.0745
32415W        W63631  12.410  11.392   0.749  0.3533  0.1631 -0.0441
32416W        W63632  14.497  23.521   2.686 -0.2029 -0.0685 -0.1038
32417W        W63633  27.345  18.365   9.880 -0.0066 -0.1422 -0.3884
32418W        W63634  15.484  20.114   9.685  0.3033  0.0632 -0.1599
32419W        W63635  19.122  13.587   1.184 -0.0729 -0.0360  0.2099
32420W        W63636   9.256   8.828   9.872 -0.0482  0.5133  0.0231
32421W        W63637  26.153   9.456   2.764 -0.0549 -0.0428  0.2186
32422W        W63638  18.810   5.675   2.070 -0.3682 -0.0111  0.2237
32423W        W63639  20.179  16.491   3.155  0.1212  0.0115 -0.0774
32424W        W63640  21.592  25.454   2.507  0.0523  0.0362  0.2338
32425W        W63641   3.320   9.043   8.625 -0.0375  0.1065 -0.3494
32426W        W63642   1.402   5.572   1.158 -0.0327  0.0831 -0.0102
32427W        W63643  10.951  26.073   9.105  0.2051 -0.4262  0.1510
32428W        W63644  14.474   9.264   8.413  0.1347  0.0662 -0.0049
32429W        W63645  24.749  13.095   0.825 -0.0960 -0.0023 -0.1021
32430W        W63646   3.165   7.016   3.053 -0.1422 -0.0827 -0.1939
32431W        W63647  19.064  15.535   2.062 -0.2312  0.2160  0.3725
32432W        W63648  21.677  12.005  10.427 -0.1591  0.0232  0.1918
32433W        W63649  26.229  10.658   1.837  0.1811 -0.0431 -0.2287
32434W        W63650   5.508  15.815   8.035  0.1400  0.1686 -0.1519
32435W        W63651  26.024  26.483   1.763 -0.1934 -0.1373 -0.2664
32436W        W63652   5.344   0.849   0.135 -0.2419 -0.0113 -0.1201
32437W        W63653   1.621   9.162   4.136  0.1572 -0.1342  0.1039
32438W        W63654   7.019  16.595   8.836 -0.2768 -0.0778  0.1072
32439W        W63655   9.928  20.256  10.004  0.1534  0.2693 -0.1099
32440W        W63656   4.507  13.853   1.347  0.0385 -0.2302  0.0478
32441W        W63657   1.830  25.924   1.960  0.2178  0.0942  0.1193
32442W        W63658  19.387  13.412   0.788 -0.1905  0.0502 -0.0045
32443W        W63659  16.763   3.908   8.408 -0.0879 -0.0907 -0.1263
32444W        W63660  23.144  23.295   8.307  0.0308  0.3231  0.1347
32445W        W63661  22.824  23.056   0.175  0.1697  0.0308 -0.1641
32446W        W63662  21.827  27.542   1.870  0.0829 -0.1278 -0.0924
32447W        W63663  18.770  12.001   0.032 -0.0991 -0.2677  0.2273
32448W        W63664   4.380   2.275   8.652  0.1535 -0.2854  0.0063
32449W        W63665   2.596  15.569   9.677  0.1387 -0.2725  0.1568
32450W        W63666  27.484   2.107   8.637 -0.1979 -0.1059  0.4206
32451W        W63667  24.102  21.981   8.587 -0.2816  0.1854  0.2017
32452W        W63668   4.613  13.722   0.093  0.1829  0.0176 -0.1359
32453W        W63669  27.561   5.078   9.667  0.0527  0.1482 -0.3521
32454W        W63670  16.968  20.546   1.802  0.1244  0.2206  0.0845
32455W        W63671   0.731  17.800   1.613  0.0650  0.2207 -0.0225
32456W        W63672   2.998  25.038   8.199  0.0272  0.1109  0.0049
32457W        W63673  22.232  23.305   6.947 -0.1060  0.1856 -0.0673
32458W        W63674   9.305   2.187   7.943  0.0247 -0.0148 -0.1862
32459W        W63675  20.415  26.933   2.490  0.1864 -0.0766 -0.2417
32460W        W63676  16.371   8.759  10.405 -0.0524  0.1104 -0.0025
32461W        W63677  25.276   8.689   2.091 -0.0374 -0.2802 -0.0891
32462W        W63678   5.634  27.212   9.183 -0.0278 -0.3164  0.0981
32463W        W63679  18.140   9.765   9.376 -0.0742 -0.2341 -0.1439
32464W        W63680   5.919   7.797   3.327 -0.2388  0.3022 -0.0571
32465W        W63681  11.969  27.613   2.973 -0.1133  0.0359  0.1732
32466W        W63682  26.122   6.520   8.953 -0.3301  0.1417 -0.0509
32467W        W63683  19.009  23.038   2.940 -0.0930  0.1212  0.2506
32468W        W63684  23.802  24.832   0.545 -0.1224 -0.2592 -0.0338
32469W        W63685  10.351   4.838   1.394 -0.1733 -0.1285  0.0740
32470W        W63686  26.758  19.094   8.612  0.1227 -0.0767  0.1011
32471W        W63687  15.394  11.913   9.984  0.0758  0.0068 -0.2513
32472W        W63688  24.897   6.614   1.418 -0.2219 -0.0561 -0.0471
32473W        W63689  13.574   3.860   2.879  0.1816 -0.1317 -0.0105
32474W        W63690  19.310  18.368   8.764  0.0712  0.1307 -0.1749
32475W        W63691  23.650  18.061  10.249 -0.1216  0.0848 -0.2333
32476W        W63692   9.132  13.487   0.766 -0.0305  0.1239 -0.1487
32477W        W63693  13.457  23.946   9.546  0.0578  0.3014  0.0128
32478W        W63694  21.757   4.953   2.792  0.1842 -0.1289 -0.2542
32479W        W63695  19.818   9.093   1.045  0.0329  0.1289 -0.1578
32480W        W63696   8.387  19.470   0.133 -0.0654  0.2953  0.0866
32481W        W63697  21.742   0.669   0.075 -0.5208 -0.1592  0.2790
32482W        W63698   3.347  24.970   2.151 -0.0639  0.0881 -0.0576
32483W        W63699  14.653   4.698   1.421  0.0922 -0.1961 -0.2255
32484W        W63700  17.512  21.878   1.530  0.2939  0.2027 -0.0522
32485W        W63701  17.249  17.855   8.203 -0.5186  0.0795 -0.1741
32486W        W63702   8.166   8.196   3.189 -0.0793  0.0618 -0.0451
32487W        W63703  20.115  24.762   2.182  0.3045  0.0112 -0.2957
32488W        W63704  26.080  16.321   3.376  0.0737 -0.0118 -0.2364
32489W        W63705   2.073   9.342   3.323  0.2410  0.0758  0.1168
32490W        W63706   6.096  11.524   8.861 -0.3366 -0.1098  0.0081
32491W        W63707  25.840  11.870   8.427 -0.2059  0.0981 -0.0746
32492W        W63708  17.080  24.124   8.124 -0.1476 -0.1351 -0.0033
32493W        W63709   7.168   1.682   9.283  0.1762  0.0658 -0.0808
32494W        W63710   7.064   4.139   8.920  0.1243  0.0708 -0.3246
32495W        W63711   4.505   6.861   9.707  0.2395 -0.0340 -0.1496
32496W        W63712   5.730  14.282   2.335  0.0345 -0.4109 -0.2805
32497W        W63713  10.770  16.329   1.003 -0.1948  0.0630 -0.1788
32498W        W63714  20.921  13.977   8.892 -0.3272  0.2453 -0.4704
32499W        W63715   6.557  15.285   0.466 -0.3857 -0.0037  0.1295
32500W        W63716  20.129  23.272   0.027  0.1485 -0.0916  0.0023
32501W        W63717  10.217   8.780   2.040 -0.2391 -0.3975 -0.1595
32502W        W63718  27.034   7.000   3.324  0.0442  0.2580 -0.2657
32503W        W63719  15.627  20.472   1.070  0.1740 -0.2394 -0.2856
32504W        W63720  25.955  18.466   2.367 -0.1446  0.1067 -0.0555
32505W        W63721  26.377   4.317   2.420 -0.2131  0.0450  0.0665
32506W        W63722   5.413   4.406   9.875 -0.1868  0.2069 -0.1073
32507W        W63723  23.102   7.039   1.943  0.1245 -0.0973  0.2068
32508W        W63724  24.003  16.184   9.204  0.1215  0.2432  0.0996
32509W        W63725   9.010  26.433   8.093 -0.1530  0.1616  0.0755
32510W        W63726  24.261  17.173   2.244  0.2255  0.2876  0.0747
32511W        W63727  10.249   1.211   1.761 -0.2354 -0.2157 -0.1808
32512W        W63728   4.381  18.164   9.949  0.0984  0.1718  0.0020
32513W        W63729  18.574   1.432   1.268  0.2825 -0.2182 -0.1895
32514W        W63730  25.985  14.176   8.468 -0.1125 -0.4076  0.0286
32515W        W63731   8.500   2.950   0.042 -0.2111  0.1318 -0.3264
32516W        W63732   8.373  11.107   0.665  0.0563 -0.2811 -0.0083
32517W        W63733  27.080   5.318   3.561 -0.2608  0.1661 -0.0095
32518W        W63734   6.158  25.791   1.387  0.1238  0.1529 -0.2015
32519W        W63735  17.123  23.401  10.348  0.0597  0.3683  0.2040
32520W        W63736  15.138   3.499  10.221  0.1973  0.0033 -0.1353
32521W        W63737  10.269  20.432   9.669  0.3310  0.1495  0.2483
32522W        W63738  16.554   0.268   0.508 -0.0933 -0.6356 -0.1755
32523W        W63739   3.149   1.835  10.002 -0.3497  0.0893 -0.0120
32524W        W63740  18.475   5.995   0.510  0.2375 -0.0505 -0.0991
32525W        W63741  10.961  26.676   7.739  0.0190  0.1793  0.0726
32526W        W63742   7.960  10.326   8.021 -0.1412 -0.1621 -0.0821
32527W        W63743   7.082   1.986   2.170  0.0073 -0.0959 -0.3237
32528W        W63744  10.331  17.497   9.099  0.1478 -0.0839  0.1601
32529W        W63745  17.605  13.048  10.369  0.0240  0.2112 -0.0216
32530W        W63746   5.698   5.797   9.192  0.1759 -0.2183  0.1773
32531W        W63747   5.800   1.549   0.079 -0.1308  0.0587 -0.1460
32532W        W63748   6.273  23.274   2.585 -0.0169  0.3317 -0.0076
32533W        W63749  26.878   7.720   1.273 -0.2286 -0.0768  0.1152
32534W        W63750   3.320   4.520   0.043 -0.1067 -0.3174  0.0234
32535W        W63751   1.932   3.946   9.161  0.1215  0.3327 -0.2604
32536W        W63752   6.744  14.996   8.313  0.0392  0.0574 -0.1762
32537W        W63753   4.322   2.032   9.106  0.1678  0.1392 -0.0681
32538W        W63754  25.232   9.989   9.838 -0.0551 -0.4000 -0.3569
32539W        W63755   2.463   9.390   2.484  0.2108  0.1249  0.3604
32540W        W63756  22.956  26.438   2.134 -0.0050  0.1356 -0.1560
32541W        W63757   6.679  17.088   9.502 -0.2414 -0.0721 -0.2453
32542W        W63758  24.977  23.888   7.932  0.3070 -0.2545  0.1496
32543W        W63759   5.741  15.094   7.482 -0.3167 -0.0290 -0.0018
32544W        W63760  25.854   8.361   9.422 -0.2972  0.0845 -0.2017
32545W        W63761  24.770  22.672   0.142  0.0350  0.3715  0.1261
32546W        W63762  16.571  12.237   8.597 -0.1701 -0.0003 -0.1801
32547W        W63763  16.860  24.168   2.097  0.2219 -0.2194  0.0184
32548W        W63764  15.224   9.205   0.546 -0.2185 -0.0211  0.0692
32549W        W63765  20.722  15.586   2.280 -0.0287  0.3136  0.3012
32550W        W63766  20.465  17.970  10.279  0.1205  0.0372  0.0166
32551W        W63767  10.242  14.774   0.892 -0.0841  0.1453 -0.1301
32552W        W63768  20.925   0.871  10.022 -0.3079 -0.1918 -0.0032
32553W        W63769  21.284  11.170   7.515 -0.3983  0.0498  0.1242
32554W        W63770   8.315   8.962   2.183 -0.0847 -0.1366 -0.2526
32555W        W63771   3.176  10.762   8.268  0.2433  0.0197 -0.1466
32556W        W63772  19.560  14.495   9.583 -0.1600  0.2523  0.1950
32557W        W63773  13.906   0.594   9.932 -0.0840  0.3017  0.3179
32558W        W63774  27.332   8.765  10.479 -0.1410  0.1650 -0.1875
32559W        W63775   4.872   3.442  10.156  0.1156 -0.0746  0.1234
32560W        W63776   4.801  16.439   1.006  0.0443 -0.2500 -0.3046
32561W        W63777   5.510   8.519   0.540  0.0674  0.2103  0.0454
32562W        W63778  21.030  12.291   9.621  0.1594  0.0363  0.2286
32563W        W63779   9.147   7.498   2.730 -0.0665 -0.1321 -0.1030
32564W        W63780  14.593  24.256   9.402  0.1600 -0.2412 -0.0255
32565W        W63781  24.214   8.883   8.887  0.0859 -0.0162  0.2864
32566W        W63782   9.974  26.685   1.044  0.1118 -0.2150 -0.0829
32567W        W63783  21.134  21.659   2.687  0.2628 -0.1123 -0.1162
32568W        W63784   3.613  15.959   0.761  0.2152 -0.1510  0.0751
32569W        W63785   4.695  15.963   9.778 -0.0583  0.0337  0.2252
32570W        W63786   3.885  17.472  10.355  0.0914  0.2593 -0.0594
32571W        W63787   0.684   6.125   8.634 -0.0289  0.3117  0.2521
32572W        W63788  14.921  13.772   0.008  0.0688 -0.3967  0.3551
32573W        W63789   8.245  15.052   9.102 -0.0352 -0.1623 -0.5162
32574W        W63790  12.145   9.450   8.682 -0.0269  0.1198 -0.1232
32575W        W63791   7.672  20.794   3.857 -0.2834  0.2197 -0.0859
32576W        W63792   4.942  12.807   8.403  0.2888  0.1533 -0.1527
32577W        W63793   7.088  23.860   2.966 -0.0421  0.0101 -0.1535
32578W        W63794   5.008  17.688   2.997  0.3108 -0.2892 -0.1624
32579W        W63795  25.293   0.461  10.200 -0.0392 -0.2447  0.0614
32580W        W63796   7.453  10.602   9.295  0.2419  0.2754  0.1068
32581W        W63797  13.881   3.574   8.314 -0.0174 -0.2045  0.1257
32582W        W63798  27.195  13.360   8.784  0.1553 -0.0118 -0.1139
32583W        W63799   3.938   5.158   1.071  0.0045  0.2357  0.0119
32584W        W63800   3.490  10.837   9.224 -0.1117  0.2210 -0.1714
32585W        W63801   5.079   9.206   9.498  0.1770  0.1695  0.0790
32586W        W63802   4.540  23.819  10.086 -0.3730 -0.0105  0.1286
32587W        W63803  17.949   1.965   1.533  0.0781  0.1853 -0.3475
32588W        W63804  21.077   4.581   1.125  0.1734 -0.1930  0.2516
32589W        W63805   6.008  10.618   1.651  0.0527  0.0984 -0.2216
32590W        W63806  18.283  24.742   2.312 -0.0401 -0.1439 -0.4569
32591W        W63807   5.341  17.401   8.749 -0.0909  0.1565 -0.0142
32592W        W63808   3.725  13.702   8.875  0.0326 -0.0645 -0.0091
32593W        W63809   2.683   3.119   1.921 -0.0229  0.0670  0.0737
32594W        W63810   3.902  15.072   7.143  0.0889  0.1081 -0.2967
32595W        W63811   8.102  17.552   3.404 -0.2639  0.3128 -0.3166
32596W        W63812   0.632  17.778   3.238  0.2892  0.1551  0.0991
32597W        W63813   7.177   4.315   8.464 -0.2294  0.1395 -0.0599
32598W        W63814  18.603   2.475   0.369 -0.2327 -0.0043  0.0011
32599W        W63815  13.952   2.020   1.415  0.0808 -0.3057 -0.4113
32600W        W63816   7.443  25.851  10.364 -0.0495 -0.0290 -0.0877
32601W        W63817   5.324  19.547   9.627 -0.2442 -0.0985  0.0741
32602W        W63818  22.636  12.058   8.103  0.0264  0.0837 -0.1682
32603W        W63819   7.292  17.077   9.015 -0.2906 -0.0080  0.1143
32604W        W63820  26.119  11.107   0.905 -0.1865  0.1074 -0.0644
32605W        W63821  25.884  27.381   0.752  0.1786  0.0394  0.1355
32606W        W63822   3.085  18.452  10.169  0.0062 -0.0642 -0.2342
32607W        W63823   1.103  11.620   7.788 -0.0346  0.0131 -0.4350
32608W        W63824  18.105   5.672   8.292 -0.0098 -0.2876  0.0647
32609W        W63825  17.297  24.941   8.796 -0.1863 -0.1989 -0.2698
32610W        W63826   1.134   5.356   8.991 -0.2054  0.1837  0.3122
32611W        W63827  11.673  19.140   6.989  0.0947 -0.0424  0.1220
32612W        W63828   4.202  15.145  10.286  0.1402 -0.2252 -0.4021
32613W        W63829  25.508   8.030   9.194 -0.0740  0.2147  0.1631
32614W        W63830  14.866   8.347   2.775 -0.4614  0.1789 -0.3403
32615W        W63831  19.725   7.409   9.660  0.3902  0.1954 -0.2819
32616W        W63832  22.831   7.712   9.303 -0.1421  0.1522 -0.0935
32617W        W63833   1.932  10.004   3.372 -0.1557  0.3209  0.2533
32618W        W63834  15.221   6.227   9.541  0.0665  0.0083 -0.0872
32619W        W63835  10.516  11.421   2.089  0.1375  0.1259  0.3869
32620W        W63836  25.879   1.791  10.186 -0.2409  0.0982  0.3459
32621W        W63837  10.681   7.124   8.449 -0.0277 -0.2847  0.1388
32622W        W63838  21.829  14.712   1.080 -0.2595 -0.1171  0.0815
32623W        W63839  11.239  18.582   2.097 -0.2500 -0.2752  0.1769
32624W        W63840  16.954   9.492   3.282  0.3333 -0.1958 -0.3197
32625W        W63841   7.536   7.020   8.229  0.0469 -0.1653 -0.2102
32626W        W63842   6.924   2.683   0.247 -0.2418 -0.0303  0.1424
32627W        W63843  10.610  25.287   8.464  0.1352 -0.2563 -0.1206
32628W        W63844   8.851   8.772   0.713 -0.3251  0.3623  0.1128
32629W        W63845  13.370   0.352   8.580 -0.1013  0.1794 -0.0217
32630W        W63846  10.320  11.898   1.771  0.2033 -0.1059 -0.1282
32631W        W63847   9.347   8.869   9.227  0.1863 -0.2223 -0.1571
32632W        W63848   9.423  23.548   3.117  0.1061 -0.1284  0.0788
32633W        W63849  20.118   9.577  10.263 -0.1569 -0.2081  0.0922
32634W        W63850  22.782   5.769   9.871 -0.3043  0.1553 -0.1131
32635W        W63851  25.862   0.842  10.462  0.3211  0.0985 -0.0884
32636W        W63852  18.064   1.626   3.963  0.1396 -0.1504 -0.2378
32637W        W63853  25.688  23.381  10.093 -0.1031 -0.0145  0.0825
32638W        W63854  22.862  18.410   9.431  0.1803 -0.3610  0.0742
32639W        W63855   7.646  25.141   2.509  0.1326 -0.1519 -0.0628
32640W        W63856  16.911   5.171  10.450 -0.1069 -0.0513 -0.3823
32641W        W63857  20.488   0.178   3.240  0.4205  0.1223  0.1151
32642W        W63858   5.588  14.614   1.742  0.0006 -0.2349  0.1952
32643W        W63859  13.768  16.852   9.811  0.0427 -0.1652 -0.0835
32644W        W63860  19.956   3.531   9.019 -0.2544 -0.0485 -0.0820
32645W        W63861   1.041  17.981  10.251 -0.2857 -0.0728  0.0779
32646W        W63862   9.676  25.223   1.709 -0.0039  0.0447  0.0450
32647W        W63863   0.805   8.640   1.591  0.0937  0.3494  0.1073
32648W        W63864   3.680  26.110   0.473 -0.0654 -0.0818  0.2457
32649W        W63865   5.003   2.867   3.753  0.0577  0.2120  0.2341
32650W        W63866  11.055  22.640   9.614  0.3331  0.0066  0.0668
32651W        W63867   7.926  18.417   0.822  0.2871  0.2783 -0.0780
32652W        W63868   8.832  20.316   2.138  0.0236  0.0043  0.0973
32653W        W63869  15.079  26.710   9.602  0.1577  0.1017  0.1754
32654W        W63870  14.838  24.742  10.308 -0.1592  0.1207 -0.0950
32655W        W63871  21.835   3.861   3.705 -0.3534  0.1529  0.3088
32656W        W63872  23.265  11.017   0.280 -0.1019 -0.0304  0.1908
32657W        W63873   0.360   6.255   1.706 -0.1893  0.2922  0.1707
32658W        W63874   2.918  24.761   9.296 -0.2710  0.0403  0.2174
32659W        W63875  17.177   2.268   0.128 -0.3030 -0.0607  0.0464
32660W        W63876  11.709  27.013   8.350 -0.0211 -0.1425 -0.4474
32661W        W63877  10.299   6.996   9.537 -0.2635  0.1979 -0.2357
32662W        W63878   4.987  19.406  10.088 -0.3655 -0.0532  0.2958
32663W        W63879   1.698  15.440   9.745  0.0661 -0.3554 -0.0553
32664W        W63880   4.608  23.253   3.439 -0.0097 -0.0005 -0.0502
32665W        W63881   5.824  26.885   8.831  0.1553  0.0581  0.0157
32666W        W63882  25.823  22.137   9.814 -0.1146 -0.5543  0.2510
32667W        W63883  14.945  15.415   3.712  0.0672  0.2543  0.0457
32668W        W63884   2.871   0.340   0.623 -0.1750 -0.0196 -0.0736
32669W        W63885  17.908   1.425   2.622  0.1701 -0.0552  0.3247
32670W        W63886  27.005  13.020   1.806  0.3406  0.0652  0.1324
32671W        W63887   6.262  25.921   9.615  0.0976 -0.3039 -0.2466
32672W        W63888  19.600  27.302   2.030 -0.0207  0.1153  0.0235
32673W        W63889   7.544  19.343   2.036  0.0258  0.1601 -0.0572
32674W        W63890   4.081  22.335   2.353 -0.0478  0.1815  0.0572
32675W        W63891  17.794   0.004   8.966 -0.0224 -0.0374 -0.1263
32676W        W63892  23.064  21.832  10.214 -0.0101  0.2072  0.0700
32677W        W63893   5.471  12.209   1.124  0.0163 -0.0629  0.0164
32678W        W63894  23.819  11.865   2.530 -0.2508  0.1081  0.0205
32679W        W63895  22.199   0.096   2.171 -0.0526 -0.0646  0.1150
32680W        W63896  14.110  11.181  10.213  0.2424 -0.0549 -0.0951
32681W        W63897  25.828   1.588   1.008 -0.0398 -0.0882  0.0430
32682W        W63898  15.585  17.076   7.813  0.1391 -0.0325 -0.1821
32683W        W63899  26.027   3.311   9.026  0.0686  0.1083  0.1714
32684W        W63900  23.510   8.765  10.236 -0.1206 -0.3084  0.1318
32685W        W63901   6.690  24.025   9.940  0.1221  0.2295  0.0916
32686W        W63902  26.930   7.982   9.418 -0.1386  0.0217 -0.0532
32687W        W63903  21.162  16.443   6.761  0.1426  0.2190 -0.0507
32688W        W63904   7.288   1.571   3.140 -0.5441  0.0255  0.1909
32689W        W63905   6.582   4.418   3.373  0.0652 -0.0875 -0.1575
32690W        W63906  18.570   2.065   8.676  0.2967 -0.0318  0.1114
32691W        W63907  18.496  20.456   8.070 -0.1231  0.1318 -0.0197
32692W        W63908   2.138   9.422  10.354  0.0046  0.0896  0.2860
32693W        W63909  11.045  18.941   1.797 -0.1980  0.0031 -0.1103
32694W        W63910  25.464   5.436   0.458  0.2350  0.1137 -0.1010
32695W        W63911   1.115  11.576   9.734 -0.0611 -0.0517  0.3742
32696W        W63912   3.390  17.558  10.438  0.0968  0.0473  0.2495
32697W        W63913  14.393  16.265   8.413 -0.5769  0.0523  0.2267
32698W        W63914  16.188  18.482   9.030 -0.1421 -0.2763 -0.3098
32699W        W63915  20.948  20.329   8.125 -0.0328  0.3709  0.2289
32700W        W63916   7.425  22.798  10.419 -0.1831 -0.0594  0.0760
32701W        W63917   0.167   0.025   9.040 -0.1351 -0.0716 -0.4058
32702W        W63918   0.693  19.339   8.830 -0.1380 -0.1485 -0.2786
32703W        W63919   2.977  21.504   0.891 -0.1419 -0.0730  0.0413
32704W        W63920  19.023  15.116   1.818 -0.1655  0.2624  0.1212
32705W        W63921   0.173  20.145   7.857 -0.0410  0.1332  0.0580
32706W        W63922   1.933  24.121   2.233  0.2049  0.0801  0.2933
32707W        W63923  25.971   8.830   9.817  0.1974  0.0845 -0.1455
32708W        W63924  20.893  15.299   1.854 -0.2060  0.2117 -0.3275
32709W        W63925  14.092   5.122   4.206  0.1612 -0.1424  0.2190
32710W        W63926  11.710  12.761   8.793  0.0279  0.3045  0.2306
32711W        W63927  26.217  14.847   7.687  0.1885 -0.0592 -0.4219
32712W        W63928  13.881   5.000   9.798 -0.1146  0.2042  0.4909
32713W        W63929  26.246  13.635   0.020  0.0294 -0.2896 -0.0993
32714W        W63930  17.192   9.899   3.178 -0.0066 -0.0720  0.0260
32715W        W63931  21.574  13.248  10.162 -0.2709  0.0586 -0.3439
32716W        W63932  20.360  26.434  10.387 -0.0532 -0.2057  0.1288
32717W        W63933  20.085  23.223   9.442 -0.0993  0.0127 -0.0992
32718W        W63934  25.286   9.825   1.567 -0.2523 -0.1059  0.0670
32719W        W63935   8.721  11.012   3.424  0.3771 -0.1827 -0.0569
32720W        W63936   3.592   6.559   0.875  0.1754 -0.1064  0.2050
32721W        W63937  14.562   5.494   1.572  0.0889  0.0965  0.0608
32722W        W63938  23.881   9.034   0.029 -0.2519 -0.2262  0.0221
32723W        W63939   9.682  21.111   9.835  0.0803 -0.3169 -0.0130
32724W        W63940  24.179   0.987   9.294 -0.2473  0.0406  0.3960
32725W        W63941  25.812  25.333   8.893 -0.4044  0.1191 -0.3674
32726W        W63942  13.240  10.353   0.680 -0.3856  0.0437  0.0044
32727W        W63943  19.782  23.622   3.137  0.0108 -0.0427 -0.1704
32728W        W63944  26.748  22.717   8.168 -0.3474  0.0075 -0.3819
32729W        W63945  27.541  19.344   8.308 -0.0104 -0.1630 -0.1176
32730W        W63946   9.596  17.422   8.602 -0.1348  0.1181  0.0414
32731W        W63947  23.920   8.774   3.158  0.1217 -0.0503  0.1815
32732W        W63948  18.458  16.036   2.684  0.0827  0.2207  0.1448
32733W        W63949  10.375   5.845   8.841 -0.2587 -0.0249  0.0972
32734W        W63950  21.133  15.881   2.212 -0.1127 -0.1891 -0.1305
32735W        W63951  24.857   8.742   3.224 -0.1791  0.0003  0.1106
32736W        W63952   7.733   9.843   9.712 -0.0782  0.1161  0.0580
32737W        W63953  14.358  25.898   2.499  0.2204 -0.0488 -0.1933
32738W        W63954   0.587  22.463   8.672 -0.0409  0.0852  0.0337
32739W        W63955  16.377   9.094   8.185  0.1068  0.2674  0.1429
32740W        W63956   9.456  17.314   8.080 -0.0950 -0.0749 -0.1061
32741W        W63957  15.020   4.647   0.168 -0.1476  0.2972  0.2941
32742W        W63958   3.319  17.503   2.877 -0.1834 -0.0177 -0.0351
32743W        W63959   4.412  20.906   2.122  0.0908 -0.1497 -0.1588
32744W        W63960  21.464   1.788   9.307 -0.1717 -0.3470  0.3449
32745W        W63961  20.189  10.626   7.114 -0.1517  0.4852  0.2860
32746W        W63962   5.327  19.921   8.693 -0.1380 -0.5067 -0.0064
32747W        W63963  13.231   4.488   0.441  0.0770 -0.1754  0.0201
32748W        W63964  22.026  10.488   0.989  0.1032 -0.0636 -0.2658
32749W        W63965  16.559  19.616   1.630  0.0715  0.0660 -0.0159
32750W        W63966  19.354  15.837   2.356 -0.1588 -0.2867  0.1215
32751W        W63967   6.541   6.220   8.966 -0.0152 -0.0443 -0.0368
32752W        W63968  21.295  19.396   1.132  0.0089  0.1885  0.0185
32753W        W63969  17.615   6.031   7.379 -0.0761  0.1191 -0.2151
32754W        W63970  23.627  15.825   9.283 -0.2798 -0.0529  0.0133
32755W        W63971  17.022  25.308   0.315  0.2005  0.2312  0.1241
32756W        W63972  17.191   9.438   9.301 -0.2573 -0.0206 -0.0914
32757W        W63973   5.976   2.940   0.745 -0.0146 -0.2913  0.2120
32758W        W63974   2.263   5.112   8.484 -0.1682 -0.0535  0.1934
32759W        W63975   2.607  21.211   2.667 -0.1058 -0.0833  0.1376
32760W        W63976   3.032   3.427   9.194  0.3425 -0.0957  0.2595
32761W        W63977  25.262   7.247   0.674 -0.0687 -0.1903 -0.1683
32762W        W63978  26.252   5.010  10.393  0.0099  0.0192  0.2739
32763W        W63979  26.489  22.817  10.426  0.0017  0.0467  0.5778
32764W        W63980  19.990   0.001   1.883  0.0544  0.3042  0.1034
32765W        W63981   1.476   6.699   9.097  0.1308  0.0046  0.1337
32766W        W63982  20.283  20.371   1.289 -0.4727  0.0568 -0.5105
32767W        W63983   5.145  18.423   9.702 -0.3087  0.1399 -0.0019
32768W        W63984   5.844  18.200  10.184  0.1266  0.1905 -0.0845
32769W        W63985  20.129  20.640   7.946 -0.0733 -0.0013  0.1425
32770W        W63986   4.550  14.056   8.729 -0.1309 -0.1169  0.0437
32771W        W63987   3.767   7.695   7.607 -0.0883 -0.2249 -0.3027
32772W        W63988  23.187   1.395   9.263 -0.0595 -0.0521  0.0349
32773W        W63989   1.962  14.982   2.392  0.1012  0.0850  0.1457
32774W        W63990  21.018   8.674   7.341 -0.4073 -0.0057 -0.1953
32775W        W63991  15.601  20.175   7.929  0.0872 -0.0561  0.0350
32776W        W63992  14.133   2.191   1.853 -0.4041 -0.0779 -0.2282
32777W        W63993  14.314   2.621   1.952  0.1333  0.0557 -0.3434
32778W        W63994   6.146  12.321   9.849  0.0868  0.2425 -0.2387
32779W        W63995  19.333  25.575   8.937 -0.0020 -0.2758  0.0212
32780W        W63996  12.319   8.663  10.311 -0.0119 -0.2458 -0.3223
32781W        W63997  18.097   3.389   9.637 -0.1359 -0.1276 -0.1377
32782W        W63998  26.160  25.183   7.620  0.0780 -0.0657  0.0270
32783W        W63999  15.429  26.084   9.279  0.2139  0.2366 -0.2327
32784W        W64000  24.880   6.990   8.695  0.0765  0.0104  0.0519
32785W        W64001   0.773   8.029   8.539  0.0094 -0.2816 -0.0256
32786W        W64002   9.390   5.664   0.057  0.1275 -0.0335 -0.2962
32787W        W64003   5.179  23.698   8.342  0.2570  0.2085  0.1987
32788W        W64004  20.123   5.902   1.743 -0.1663 -0.0405  0.3925
32789W        W64005  11.136  21.703   2.042  0.0317  0.0290  0.1141
32790W        W64006  12.135  12.458   8.992  0.0177  0.1944  0.0967
32791W        W64007   7.577  15.866   0.078 -0.0091 -0.0733  0.1763
32792W        W64008  22.365   3.291   3.505  0.3636  0.0733 -0.3226
32793W        W64009   6.114  11.242   9.710 -0.0741 -0.1883 -0.2225
32794W        W64010  22.165   3.384  10.283  0.0593  0.2436  0.1564
32795W        W64011  18.195   1.370   3.016  0.0279  0.4447  0.1390
32796W        W64012  17.037  11.105   7.922  0.3964 -0.0265  0.1039
32797W        W64013   1.904   0.558   0.953  0.0345  0.1434  0.0476
32798W        W64014  24.894   6.788   0.044  0.1533  0.0789 -0.0650
32799W        W64015  12.681  14.800   1.455  0.0566 -0.2566  0.0095
32800W        W64016  22.555  16.760   9.541 -0.0430 -0.1735  0.2973
32801W        W64017  25.807   5.951   4.103 -0.4165  0.1540  0.1213
32802W        W64018  24.304  23.046   0.829 -0.2101 -0.5038  0.0278
32803W        W64019  17.141  16.286  10.160 -0.0866  0.1815 -0.2007
32804W        W64020  16.313  10.326   9.309  0.1661  0.0646  0.1216
32805W        W64021   6.617   4.267   0.227 -0.2613  0.0792 -0.1989
32806W        W64022  19.317  10.195   8.113  0.0664 -0.0471 -0.0830
32807W        W64023   6.505  26.544   7.798  0.1525  0.1318  0.1005
32808W        W64024   4.381   9.999   2.193  0.0846  0.0064  0.1947
32809W        W64025   1.567  21.561  10.439  0.1886 -0.1788 -0.1100
32810W        W64026   4.054  22.450   9.509 -0.0729 -0.3289  0.0769
32811W        W64027  19.050   9.018   8.119  0.2767 -0.0256 -0.3428
32812W        W64028  26.453   0.182  10.212 -0.0698 -0.1007  0.1057
32813W        W64029  20.937   8.007   9.381  0.0181  0.1509 -0.3310
32814W        W64030  27.322  16.054   8.905  0.0992  0.1746  0.0268
32815W        W64031  18.123  11.818   9.332  0.0949  0.2326  0.2986
32816W        W64032   8.614  21.141   9.199  0.0890 -0.0646 -0.0251
32817W        W64033  26.470  22.762   9.795  0.0969  0.1614 -0.0973
32818W        W64034  18.551   7.141  10.465  0.0812  0.2061 -0.0387
32819W        W64035   5.722   0.065   0.448 -0.1891 -0.0021 -0.0159
32820W        W64036   2.659   9.299   0.024  0.2573 -0.0402  0.2258
32821W        W64037   2.087   6.839   9.447  0.1880  0.3243  0.1962
32822W        W64038  24.619  12.592   0.593 -0.0262 -0.0349  0.0017
32823W        W64039   9.371  11.074   0.281  0.0564 -0.0924  0.0162
32824W        W64040  14.658  20.980   0.125  0.2550  0.1614 -0.2929
32825W        W64041   0.931  19.140   1.393  0.0722  0.0309  0.2714
32826W        W64042  19.371  24.142   1.779 -0.0419 -0.0157  0.0348
32827W        W64043  22.554   2.745   9.014 -0.1020 -0.0731  0.0093
32828W        W64044  18.357  27.159   8.325  0.0438 -0.0786  0.4233
32829W        W64045   1.429  13.130   1.652 -0.1650  0.0204  0.3582
32830W        W64046  22.506  25.563   8.411  0.2796 -0.0273 -0.1156
32831W        W64047  23.278  25.627  10.128 -0.0406 -0.1601  0.0552
32832W        W64048   0.492   1.637   7.794 -0.1331 -0.1295 -0.1019
32833W        W64049  11.946  20.221   1.552  0.1715  0.0592 -0.2544
32834W        W64050   7.072   3.444   2.331  0.4150 -0.2149  0.0415
32835W        W64051   6.478  20.502   1.571  0.1209  0.1930 -0.0776
32836W        W64052  23.569  23.428   0.039  0.2513 -0.0040 -0.2092
32837W        W64053   1.171  14.461   2.050  0.0261 -0.0755 -0.1354
32838W        W64054  18.791  27.109   7.363 -0.0276  0.0394  0.0241
32839W        W64055  21.527  26.025   1.065  0.1239 -0.0763  0.3027
32840W        W64056   6.132  13.155   9.425  0.4344 -0.0487 -0.1078
32841W        W64057  24.537   7.219   9.717  0.0729 -0.0117  0.0236
32842W        W64058  18.593  23.647  10.200  0.2602 -0.0759 -0.0600
32843W        W64059  20.641  16.067   3.190  0.1682  0.0948  0.1746
32844W        W64060  27.541  25.354   2.231  0.1371 -0.1235 -0.3062
32845W        W64061  13.240  18.806   9.594  0.3273 -0.0084  0.1006
32846W        W64062  22.752   2.752   2.015 -0.2018  0.0033 -0.1059
32847W        W64063  12.607   5.101   8.473  0.0325 -0.0259 -0.2120
32848W        W64064   2.385   5.057   0.416  0.1396 -0.1134  0.1273
32849W        W64065  14.072  27.110   0.802 -0.0131 -0.2584 -0.1681
32850W        W64066   3.850  15.242   1.703  0.1065  0.0396 -0.1981
32851W        W64067  26.394  13.189   3.766 -0.1120  0.0146 -0.0254
32852W        W64068   1.730  19.240   3.468 -0.1371 -0.1362  0.2060
32853W        W64069   4.515  24.868   9.798  0.1041  0.3921  0.5434
32854W        W64070  20.603  24.756   2.391  0.2889  0.2889  0.4389
32855W        W64071  13.657   0.731   2.575 -0.1351 -0.2642  0.3179
32856W        W64072  26.871  21.856   1.520 -0.0789  0.3241 -0.1941
32857W        W64073  10.693   7.445   1.299 -0.3676 -0.0450 -0.3702
32858W        W64074  11.681  10.800  10.453  0.2839  0.1647  0.3987
32859W        W64075  10.314  10.621   9.264  0.1577  0.0492  0.2296
32860W        W64076   9.915  27.010   8.497  0.0295 -0.0311 -0.1785
32861W        W64077   9.289  20.994   0.750 -0.0476 -0.1130 -0.1995
32862W        W64078  11.077  18.157   8.436 -0.2342 -0.0733 -0.1036
32863W        W64079  12.993   8.734   0.957 -0.0080  0.0877 -0.2231
32864W        W64080  12.055  21.372   8.630 -0.0590 -0.2619  0.1939
32865W        W64081  20.772  17.933   2.121  0.1180 -0.2385 -0.2894
32866W        W64082   8.660  19.399   3.139  0.0816  0.0252  0.0992
32867W        W64083  17.860  15.066   3.107 -0.0240 -0.2468 -0.2085
32868W        W64084   7.940  17.493   9.976 -0.0902  0.1441 -0.2267
32869W        W64085  10.834  19.623   0.418  0.0194  0.1124  0.2468
32870W        W64086  13.477  17.723   2.958  0.2471 -0.2197  0.1914
32871W        W64087   9.777  20.838   7.324 -0.2615  0.2819 -0.0505
32872W        W64088  22.316  22.773   2.823  0.1287  0.0298 -0.0352
32873W        W64089   9.073  11.391  10.519  0.2136 -0.0017  0.1607
32874W        W64090   6.674  22.552   3.287 -0.1370 -0.1276 -0.0765
32875W        W64091  14.165  14.221   7.586 -0.1607 -0.0121 -0.0522
32876W        W64092  27.404   7.623   9.204  0.0891 -0.0030 -0.2098
32877W        W64093  18.521   6.556   9.415  0.0899 -0.1772  0.1666
32878W        W64094  24.489   3.783   2.167 -0.1520  0.0313 -0.1246
32879W        W64095  11.234   7.866   2.420 -0.1124 -0.1675 -0.1331
32880W        W64096  12.458   8.940   9.658 -0.1097  0.3628  0.0978
32881W        W64097   1.365  21.535   1.724 -0.1619 -0.2589 -0.0865
32882W        W64098   6.083  13.735   1.094  0.0699 -0.0138  0.0632
32883W        W64099   5.540  22.721   1.343 -0.2936  0.1145  0.3227
32884W        W64100  18.304  15.792   2.171  0.0066  0.0949  0.0348
32885W        W64101   2.814  21.346   2.112 -0.0952 -0.1119  0.0469
32886W        W64102   5.947   7.789   0.348 -0.0718  0.2953 -0.4206
32887W        W64103  23.820   6.815   3.130  0.0765  0.0630 -0.3500
32888W        W64104  13.100   1.119  10.339  0.0799  0.1519 -0.0338
32889W        W64105   9.692   0.693   3.570  0.1912 -0.2643  0.1534
32890W        W64106  14.382  17.495   0.596  0.4773  0.1808  0.0640
32891W        W64107  15.003  11.545   1.292 -0.0454  0.4108 -0.3511
32892W        W64108   0.273   1.880   7.369  0.1300 -0.2286  0.1848
32893W        W64109   5.393  26.645   8.621  0.1508  0.0612 -0.3357
32894W        W64110  18.986   8.444   0.648  0.0905 -0.2779 -0.3077
32895W        W64111   5.106   9.508   3.054  0.1740  0.1779 -0.0163
32896W        W64112   8.565  19.458   2.196 -0.0659  0.1803 -0.1090
32897W        W64113  10.630  25.749   8.217  0.4309  0.3422 -0.2062
32898W        W64114  13.557  13.760   7.806 -0.3114 -0.0951  0.1692
32899W        W64115   9.069  19.511   8.058  0.0065 -0.3164  0.1164
32900W        W64116  26.880  21.497   9.993  0.3681  0.1321 -0.2636
32901W        W64117  26.265  20.335   1.327 -0.0748  0.0474 -0.0089
32902W        W64118   2.187   3.000   1.394 -0.0172 -0.2673 -0.0541
32903W        W64119   9.123  26.224   0.629 -0.7130  0.1596 -0.1372
32904W        W64120  14.801   3.860   9.266 -0.1762 -0.1989  0.0656
32905W        W64121   0.959   3.903   1.223  0.2077 -0.0977  0.0003
32906W        W64122  12.902   6.203   0.923 -0.4520  0.1306  0.3114
32907W        W64123  26.415   7.784   1.579 -0.3403 -0.0868  0.0793
32908W        W64124   0.315  20.982   0.716  0.1566  0.1212 -0.1063
32909W        W64125  12.075   3.613   7.654 -0.1603 -0.0695  0.1667
32910W        W64126  26.042  17.435   1.359 -0.0383 -0.0964  0.1280
32911W        W64127   9.733  13.551   2.010 -0.0184 -0.0618  0.3079
32912W        W64128   2.977  25.051   1.853 -0.0565  0.0911 -0.2580
32913W        W64129  16.418   2.021   2.132  0.0314 -0.1046 -0.2152
32914W        W64130  20.983   7.520  10.003 -0.4445 -0.0176 -0.0396
32915W        W64131  21.604   3.504   0.514  0.1190 -0.0028 -0.0270
32916W        W64132  13.515  14.850   3.315 -0.2469  0.2521 -0.1817
32917W        W64133  13.202  20.990   9.527  0.1671  0.0247 -0.1073
32918W        W64134  26.504   0.931   9.681 -0.2448 -0.0505  0.1502
32919W        W64135  20.041   9.344   8.206 -0.0066 -0.3470  0.0779
32920W        W64136  20.493  12.932   1.190  0.0210  0.0674 -0.0959
32921W        W64137   0.462  14.207   2.656  0.0754 -0.0397 -0.0699
32922W        W64138  15.735  11.677   8.577  0.4122 -0.1529 -0.3310
32923W        W64139   3.783  19.211   8.901 -0.1807 -0.2025 -0.3492
32924W        W64140  10.621  13.124   7.900  0.1830  0.1319 -0.0968
32925W        W64141  16.948   5.184   0.815  0.0313 -0.1922 -0.2544
32926W        W64142   2.494   1.499   2.707 -0.1583  0.1347  0.0431
32927W        W64143   6.294  20.483   9.474 -0.2399  0.0405  0.0057
32928W        W64144  19.362  21.099  10.102  0.0959  0.0505  0.1748
32929W        W64145   6.853  22.683   8.031  0.0011 -0.3744  0.0277
32930W        W64146  19.795   0.582   8.891  0.1261  0.3728  0.0022
32931W        W64147   8.009  14.136   1.021 -0.0208  0.1233  0.0323
32932W        W64148  10.700  14.312   0.135 -0.1133 -0.1411  0.1748
32933W        W64149  17.673  27.298   0.237  0.2862  0.1619 -0.2134
32934W        W64150   0.351   2.194   0.708 -0.1311  0.1435 -0.0921
32935W        W64151   6.990   6.509   2.190 -0.2577  0.2048 -0.0733
32936W        W64152   2.132   7.820   1.623  0.1779  0.0015 -0.0134
32937W        W64153   2.145  13.907  10.314  0.0243  0.2203 -0.1294
32938W        W64154   0.507  17.153   1.701 -0.3152  0.0191  0.1921
32939W        W64155  25.404  12.162   0.654 -0.2559 -0.0620  0.0472
32940W        W64156   1.972  20.835   7.408  0.1536  0.0774  0.0450
32941W        W64157  18.227   4.406   7.920  0.0766 -0.0648  0.4479
32942W        W64158   6.062   1.231   7.997 -0.1232  0.0380  0.2481
32943W        W64159  22.090   9.405  10.471  0.0716 -0.2667  0.0503
32944W        W64160   9.336  26.664   8.648  0.1153 -0.1533 -0.3007
32945W        W64161   8.809  26.227   1.261 -0.3355 -0.2441 -0.2706
32946W        W64162   4.514   7.266   0.037  0.2894  0.1381 -0.3648
32947W        W64163   8.990   1.665   3.714  0.0323  0.3458  0.1283
32948W        W64164  17.763   6.282   9.848 -0.0986  0.0081 -0.0616
32949W        W64165   8.152  13.615   1.877 -0.4146  0.2164 -0.1657
32950W        W64166  11.008  12.899   0.094  0.0470 -0.0592 -0.0748
32951W        W64167  15.864   1.978   0.581 -0.1084 -0.0389  0.0502
32952W        W64168  25.207  26.792   0.189  0.2112  0.0652 -0.0058
32953W        W64169   6.310   2.299   3.488  0.2705  0.1701  0.0924
32954W        W64170  13.728  20.914   7.927  0.2927 -0.3301 -0.1609
32955W        W64171  14.057  16.175   7.604  0.1120 -0.1704  0.3597
32956W        W64172   7.089  26.314   9.866  0.1135  0.1831  0.1045
32957W        W64173  16.016  11.124   9.108 -0.2282 -0.0543 -0.1384
32958W        W64174   6.605   8.946   1.764 -0.3813  0.0733  0.2534
32959W        W64175  21.298   4.552   0.541 -0.0559 -0.0586 -0.1058
32960W        W64176  20.650  10.187   0.504  0.1568  0.0507 -0.3742
32961W        W64177  23.145   4.295   2.022  0.0029 -0.2803 -0.0435
32962W        W64178  23.809  20.174   1.258 -0.3719 -0.0486 -0.0097
32963W        W64179  23.623  16.367   7.773  0.2776 -0.0783 -0.2088
32964W        W64180  19.045  27.283   1.559 -0.2468  0.3594 -0.1012
32965W        W64181   3.492  26.529   9.309 -0.0947  0.1512  0.2863
32966W        W64182  21.275  15.201   0.644 -0.0410  0.2920 -0.0242
32967W        W64183  18.233  10.396   0.057  0.0120 -0.2192  0.2483
32968W        W64184   3.067  20.407   9.882 -0.3117 -0.2871  0.0458
32969W        W64185   4.348  15.327   8.494 -0.3560  0.2062  0.0731
32970W        W64186   0.403   5.140   7.997  0.0431 -0.0493 -0.1766
32971W        W64187  12.071  15.997   8.935 -0.3540  0.1561 -0.1777
32972W        W64188  14.131  17.535   1.410  0.3121  0.2985  0.0540
32973W        W64189   5.954   8.913   8.764 -0.1060  0.1756  0.0443
32974W        W64190   5.750  17.584   1.501  0.2124 -0.3241  0.1142
32975W        W64191  17.701  14.835   3.527 -0.2706  0.0502 -0.0925
32976W        W64192  21.730   9.458   1.958 -0.1047 -0.2082  0.0157
32977W        W64193  12.438   0.627   7.800  0.0004  0.1120 -0.2620
32978W        W64194  23.138   1.265   7.881  0.1226  0.4384 -0.3400
32979W        W64195  11.650  12.340   9.799  0.1534  0.0480  0.0188
32980W        W64196   0.912  12.266   1.730  0.1706 -0.0378  0.1751
32981W        W64197  19.818  18.691  10.090 -0.0024  0.0395 -0.1537
32982W        W64198   3.067  18.655   8.306 -0.0701  0.0658 -0.2160
32983W        W64199  18.737  23.834   8.809  0.2262 -0.3746 -0.2807
32984W        W64200  19.022   1.441  10.266  0.0406 -0.0273  0.0483
32985W        W64201   8.900  12.698   1.557 -0.3082  0.0755  0.2442
32986W        W64202   0.183  15.889   7.921  0.1005 -0.1473  0.0283
32987W        W64203  23.388  19.405   9.174 -0.2407 -0.1643 -0.1989
32988W        W64204   0.046   6.680   8.598  0.1835 -0.1647 -0.0360
32989W        W64205   9.744   9.867   1.034 -0.1066  0.1722  0.3173
32990W        W64206  23.849   0.096   8.865 -0.3118  0.0823  0.2545
32991W        W64207  19.542   4.919   8.974  0.0775 -0.2097  0.2732
32992W        W64208  16.185  16.349   2.656  0.0977  0.1277  0.0510
32993W        W64209  23.880  16.903   1.059 -0.0003 -0.1879  0.1066
32994W        W64210   9.975   7.474   0.389  0.2088 -0.2731 -0.2475
32995W        W64211   2.398  17.592   7.729  0.1835 -0.3037  0.0698
32996W        W64212   3.064  14.356   6.947  0.0460 -0.2277  0.0656
32997W        W64213   2.828  27.271   8.924  0.0074  0.0703 -0.2905
32998W        W64214   0.708   7.011   2.319 -0.3505  0.1016  0.0194
32999W        W64215  20.254  19.272   3.290  0.2047 -0.1696  0.0791
33000W        W64216  14.835  26.916   0.150 -0.0088  0.0096 -0.0723
33001W        W64217  20.493  24.900   1.334  0.0139  0.1428  0.1864
33002W        W64218  19.018  20.783   2.459  0.0540  0.0833  0.2785
33003W        W64219   1.735  27.068   8.439 -0.1755 -0.2021  0.1527
33004W        W64220  15.040   0.283   2.009 -0.1839 -0.4448 -0.2422
33005W        W64221   0.370  19.934   2.302 -0.1235 -0.1652  0.0643
33006W        W64222  24.176  10.068   2.353  0.2589  0.1199  0.2302
33007W        W64223  17.499  27.565   9.491  0.0606 -0.5369  0.1156
33008W        W64224  10.516   0.497   7.263  0.0617 -0.0436  0.0727
33009W        W64225   3.322   1.914   8.245  0.2081 -0.0597 -0.0532
33010W        W64226  23.964   5.920   0.129 -0.0979  0.2071  0.0097
33011W        W64227  26.147  17.749   8.707  0.2612 -0.1706  0.1945
33012W        W64228   0.868  26.533   0.852  0.0817  0.2046 -0.0334
33013W        W64229  21.535   5.787   7.673 -0.3809 -0.0084 -0.2399
33014W        W64230   9.802  10.959   2.882 -0.1484 -0.1123  0.1910
33015W        W64231  23.946  26.998   7.569 -0.1178  0.0076  0.0095
33016W        W64232   5.636  21.019   0.186  0.1660  0.1086  0.0766
33017W        W64233  16.916  17.079   8.098  0.1771  0.0127 -0.0178
33018W        W64234  25.084  24.603   9.604 -0.0127 -0.1771 -0.0212
33019W        W64235   0.558  15.214   9.053  0.1052  0.0139 -0.1699
33020W        W64236   4.668   4.526   0.032 -0.1115 -0.1239  0.0767
33021W        W64237  11.466  17.287   7.428  0.3712  0.1490  0.1393
33022W        W64238  20.543  24.933   1.827  0.0425 -0.2105  0.1977
33023W        W64239   1.478  17.420   3.051  0.0691 -0.0820  0.3229
33024W        W64240  25.856   5.421   9.114  0.0088 -0.1311  0.2443
33025W        W64241   9.642   0.957   0.387 -0.0548 -0.0893  0.0942
33026W        W64242  18.311  12.311   0.912 -0.1240  0.0860 -0.0996
33027W        W64243  22.218   7.468   0.611 -0.2217  0.2858  0.1362
33028W        W64244   2.579   8.058   8.192 -0.0136  0.1866  0.2326
33029W        W64245  16.043  23.677   0.592  0.1509  0.0203  0.1881
33030W        W64246  13.108   1.858   2.646 -0.0282  0.3260 -0.2113
33031W        W64247  14.739  12.091   3.476  0.3953  0.2244  0.0010
33032W        W64248  19.117  18.830   1.190 -0.1267  0.1610  0.1081
33033W        W64249  13.961  24.948   0.877  0.1401  0.1119 -0.1338
33034W        W64250   3.320  25.504   9.069 -0.2410  0.1975 -0.2812
33035W        W64251   0.450  22.947   9.007  0.0002  0.0743 -0.0025
33036W        W64252   6.159   6.255   8.650 -0.0586  0.3276 -0.0443
33037W        W64253  19.379   6.486   8.768  0.0045  0.1794 -0.0961
33038W        W64254   5.948  23.070  10.339 -0.3074 -0.1221  0.0877
33039W        W64255  26.695   6.622   1.239 -0.0617 -0.2364 -0.1903
33040W        W64256  20.123  13.304   3.138  0.2213  0.0424  0.3523
33041W        W64257   6.113  14.863   7.708  0.1764 -0.2316  0.1291
33042W        W64258  18.495  18.007   9.005  0.1682  0.2876 -0.0539
33043W        W64259  16.869  15.730   0.806  0.1384  0.1703 -0.2377
33044W        W64260   4.232  27.596   9.492  0.0735  0.2598  0.1098
33045W        W64261  27.390  21.865   0.686 -0.0191  0.0705  0.1284
33046W        W64262   7.720   7.499   0.870  0.1360 -0.0522 -0.0216
33047W        W64263  15.043  15.307   9.373  0.2446 -0.2000 -0.0112
33048W        W64264  27.353  16.047   7.798 -0.0577  0.1422 -0.0359
33049W        W64265   7.002  22.583   8.883  0.0240  0.2953 -0.1437
33050W        W64266  25.289  14.551   2.750 -0.0394  0.0361 -0.1598
33051W        W64267   0.726   9.511   2.993  0.2028 -0.0305 -0.3475
33052W        W64268  21.154   3.024   1.730  0.1817 -0.2323 -0.2506
33053W        W64269  18.832  11.124   0.997 -0.1244 -0.0120  0.0791
33054W        W64270   4.959  20.925   2.253  0.0206 -0.0014  0.2188
33055W        W64271  11.361   8.197   1.295  0.2157 -0.0285  0.1829
33056W        W64272  20.935   7.288   2.681 -0.2709 -0.1845 -0.1419
33057W        W64273  25.614  23.298   3.116  0.2896 -0.2212 -0.2505
33058W        W64274  17.393   6.352   1.485  0.0087 -0.0779  0.0316
33059W        W64275   4.684  21.455   2.885  0.2588  0.1035  0.0085
33060W        W64276   9.091   5.511   2.403 -0.1698 -0.1229 -0.2148
33061W        W64277   6.791  23.979   0.907  0.1786  0.1323  0.1233
33062W        W64278  13.071  24.191   3.187 -0.0569  0.4271  0.1113
33063W        W64279  27.375  21.541   2.915  0.0677  0.2302  0.2006
33064W        W64280   3.064  22.169   2.178  0.1504 -0.1103  0.1388
33065W        W64281   4.424   8.768   1.851  0.0083  0.2202  0.0258
33066W        W64282  21.282  15.017   1.948  0.2662 -0.1762 -0.1335
33067W        W64283  15.950  12.363   8.540 -0.0175  0.1363  0.2450
33068W        W64284   1.662  18.422   0.876 -0.1472 -0.0754 -0.0621
33069W        W64285  22.349  16.434   7.682 -0.0887 -0.1007  0.2964
33070W        W64286  22.506  22.489   8.395  0.1088 -0.1753  0.0934
33071W        W64287   2.497   8.580   2.956 -0.0772  0.1075 -0.2289
33072W        W64288   7.768   8.524   8.294  0.0642 -0.4499 -0.0032
33073W        W64289   6.166   9.671   9.961 -0.2318 -0.0985 -0.1008
33074W        W64290  14.951   0.979   1.123 -0.0662  0.1345 -0.3706
33075W        W64291   6.807  11.625   8.415  0.0379 -0.0513  0.4054
33076W        W64292   9.778  18.853   0.382 -0.3249  0.1905 -0.1314
33077W        W64293  17.836  23.975   9.508 -0.0147  0.0937 -0.0118
33078W        W64294  22.276   5.348   2.820 -0.1155  0.0777  0.3217
33079W        W64295  10.397   5.209   2.688 -0.0642 -0.0231  0.2239
33080W        W64296   5.637  18.320   9.659 -0.0044  0.0950  0.0022
33081W        W64297  11.192  20.977   0.483  0.3042  0.2201  0.0384
33082W        W64298  15.216  15.667   1.764  0.0876 -0.1182  0.2257
33083W        W64299   8.864  26.895   8.256 -0.2320  0.0797  0.3667
33084W        W64300  11.550   0.269   0.174 -0.0341 -0.2299  0.0396
33085W        W64301   6.470   3.741   2.803 -0.2710  0.2567 -0.0155
33086W        W64302  22.287  19.638   8.434  0.0619 -0.2183  0.0447
33087W        W64303  23.980  11.464   8.998  0.2769 -0.1898 -0.2029
33088W        W64304  13.555  17.718   7.437  0.2245  0.0011  0.0715
33089W        W64305  10.929  22.624  10.064 -0.2711 -0.2138 -0.1052
33090W        W64306  24.783   6.214   9.900 -0.0130 -0.1605 -0.0567
33091W        W64307  10.001   0.807  10.168  0.0357 -0.0084 -0.0364
33092W        W64308  12.618  20.227   1.599 -0.0151  0.2625 -0.1746
33093W        W64309   9.303  17.152   9.027  0.2516  0.0885 -0.2514
33094W        W64310   7.812  26.618   1.152  0.2860 -0.0857  0.0745
33095W        W64311   0.389   5.207   2.968 -0.0124 -0.1834  0.1415
33096W        W64312   6.046   9.583   1.728 -0.0885 -0.2233  0.1468
33097W        W64313  24.758  22.193   2.862  0.0379  0.3271  0.0174
33098W        W64314   5.488   2.085   9.984 -0.1925  0.0329 -0.1321
33099W        W64315   9.677   9.439  10.310  0.0234  0.0278  0.0674
33100W        W64316   6.301   0.083   0.713  0.2470  0.3243  0.0635
33101W        W64317  18.973  23.898   7.479 -0.0781 -0.2566 -0.4652
33102W        W64318  20.490  25.612   9.741 -0.1906  0.2668 -0.2600
33103W        W64319  20.740  16.565   1.683  0.1622 -0.1272 -0.0402
33104W        W64320  24.794  15.507   2.522 -0.2194 -0.0921 -0.2647
33105W        W64321  18.723  25.198   9.914  0.0228  0.0378  0.0520
33106W        W64322   9.672  11.876   1.418  0.2307  0.1308  0.1321
33107W        W64323   9.166  15.244   1.063 -0.0023  0.1446  0.3929
33108W        W64324   6.296   7.189   8.625 -0.1608  0.0153 -0.0926
33109W        W64325  26.076   9.645   1.479 -0.1400  0.2353  0.1672
33110W        W64326  13.690  14.100   9.658 -0.1688  0.1483 -0.0352
33111W        W64327  23.785  19.468   7.192 -0.0796  0.1872 -0.0241
33112W        W64328  12.871  18.565   2.925  0.1977 -0.0154  0.4964
33113W        W64329   2.546   0.118   9.068  0.0797 -0.2088 -0.1435
33114W        W64330  25.220  20.706   0.697 -0.1237 -0.0143  0.0654
33115W        W64331   4.663  17.836   7.648 -0.1655  0.2203 -0.0259
33116W        W64332  20.223  15.973   8.329 -0.0220 -0.1053 -0.1735
33117W        W64333  10.535  15.966   1.938  0.0468 -0.0612 -0.2848
33118W        W64334   0.779  15.810   3.309 -0.0790 -0.1333  0.0369
33119W        W64335  20.602   7.449   0.977 -0.2024 -0.1718 -0.2983
33120W        W64336   7.932  21.962   2.788 -0.1667  0.1919  0.0253
33121W        W64337   0.262   8.376   2.331 -0.0250  0.0041  0.3121
33122W        W64338   8.730   2.178   8.701  0.0565 -0.2255 -0.0594
33123W        W64339  25.994  12.623   9.903 -0.4415  0.2341  0.2305
33124W        W64340   5.966   8.261   9.031 -0.0461 -0.3276  0.1055
33125W        W64341  20.618  14.817   8.680  0.2180  0.3933  0.3296
33126W        W64342  11.838  23.563   9.956  0.2183 -0.1231 -0.0905
33127W        W64343  22.138  21.656   7.388 -0.5961 -0.1624 -0.2547
33128W        W64344   1.644  18.037   0.233 -0.0092  0.4534 -0.1029
33129W        W64345   6.737   5.243   2.730  0.1874 -0.2413  0.1591
33130W        W64346   6.216   9.221  10.219  0.2789  0.1153 -0.2293
33131W        W64347  11.767  24.991   0.251 -0.0561  0.2541  0.1314
33132W        W64348   0.322   8.845   3.383  0.0764  0.1526 -0.2396
33133W        W64349   6.480  21.088   1.719  0.0107  0.0147 -0.0261
33134W        W64350   3.951  26.517   7.859  0.0086 -0.2217  0.0072
33135W        W64351  10.485  19.032   2.019 -0.2137 -0.2431 -0.0637
33136W        W64352  18.267   2.575   0.790  0.1862 -0.0986  0.0500
33137W        W64353  15.342  15.944   8.385  0.3398 -0.1396  0.0328
33138W        W64354  25.862  23.746   8.394 -0.0174  0.1577 -0.1423
33139W        W64355  11.487   5.382   0.973 -0.0586  0.1728 -0.3765
33140W        W64356   4.750   4.527   3.525  0.1709  0.1503  0.1869
33141W        W64357  27.044  13.440   0.508  0.2335  0.1232 -0.1653
33142W        W64358  26.841   1.111   8.602  0.2213 -0.0662 -0.0687
33143W        W64359  13.942  10.458   8.085  0.2304 -0.1513  0.0561
33144W        W64360  21.111  21.697   9.983 -0.1162 -0.0127  0.0802
33145W        W64361  15.542  12.949   1.853 -0.0497 -0.1323  0.0078
33146W        W64362  21.527  16.835   0.449 -0.1544  0.4526 -0.0234
33147W        W64363  23.597  18.236   0.724  0.1466 -0.1970  0.4595
33148W        W64364  16.825  18.914   2.339 -0.0869 -0.4173  0.1208
33149W        W64365   8.146  22.614   9.883  0.1972  0.2579  0.2665
33150W        W64366  12.644  16.018  10.230  0.1470  0.4210 -0.1541
33151W        W64367  12.515  20.611   8.790 -0.3441  0.0360  0.1636
33152W        W64368   4.959  13.089   3.158  0.0599  0.0702 -0.1026
33153W        W64369   2.551   9.596   9.373 -0.3775 -0.0115 -0.1974
33154W        W64370   8.374   1.691   9.848  0.0602  0.0182  0.0182
33155W        W64371   8.133  24.238   2.321  0.2505 -0.0962 -0.2585
33156W        W64372   4.397  25.197   8.790  0.0605  0.0302  0.1760
33157W        W64373   0.404  14.940   9.563 -0.1942 -0.0525  0.1581
33158W        W64374  21.074  14.471   1.710 -0.3888  0.1132  0.0933
33159W        W64375  17.205   4.770   8.550 -0.0011 -0.0662 -0.1694
33160W        W64376  26.958  23.881   7.311 -0.0219  0.1601  0.0038
33161W        W64377   0.817   2.012   0.082  0.2787 -0.1262  0.0081
33162W        W64378   8.293   1.343   0.194 -0.1697  0.2197  0.1132
33163W        W64379  20.346  11.884  10.258 -0.0976 -0.0347  0.3246
33164W        W64380   7.871  23.607   2.564 -0.0455 -0.2116 -0.1890
33165W        W64381  27.366  17.465   2.810  0.2297  0.1834 -0.3677
33166W        W64382  24.835  18.529   9.790 -0.2398  0.0419 -0.0001
33167W        W64383  24.485  26.703   7.928 -0.0218 -0.1019 -0.1529
33168W        W64384  24.409  25.568   1.058  0.2152  0.2075  0.2279
33169W        W64385  12.827  18.123   9.302 -0.0200 -0.0624  0.1288
33170W        W64386   3.839   8.756   0.120  0.0195  0.1453 -0.2699
33171W        W64387   1.162  12.769   2.468 -0.0052  0.1402 -0.0131
33172W        W64388   0.173   8.115   2.757  0.0008 -0.2670 -0.0205
33173W        W64389   6.836  15.909   1.127 -0.0906  0.2719 -0.0476
33174W        W64390   9.527  19.912   8.808  0.1343 -0.1401 -0.2314
33175W        W64391  18.637   7.289   7.285  0.1652 -0.0590  0.2118
33176W        W64392   1.192  27.417   7.642 -0.4351  0.0025  0.0466
33177W        W64393  11.207  10.844   9.066 -0.2434  0.2583  0.0287
33178W        W64394   4.928  11.026   7.367  0.1570 -0.4841  0.0359
33179W        W64395  11.036   3.467   9.184 -0.0325  0.0411 -0.0007
33180W        W64396   5.757  27.229  10.366  0.3939 -0.1041  0.0011
33181W        W64397  23.657   7.438   2.662 -0.0340 -0.0821 -0.1308
33182W        W64398  20.784  10.237   9.678 -0.1404 -0.1673  0.3460
33183W        W64399  27.310   7.849  10.474  0.1785  0.1493  0.1013
33184W        W64400   6.401  12.545   1.890  0.1813  0.1057  0.0198
33185W        W64401  15.014  22.863   8.193  0.3479 -0.2436 -0.2723
33186W        W64402  15.576   5.766   1.617  0.2975 -0.0317  0.1002
33187W        W64403  26.837  13.823   0.766 -0.2016  0.1154 -0.0207
33188W        W64404  21.122   7.937   7.460 -0.2601 -0.0215  0.1020
33189W        W64405  13.317  12.395   9.613  0.1736  0.1696 -0.2167
33190W        W64406  14.794  11.998   9.048  0.1992 -0.0922  0.2363
33191W        W64407  20.934  23.992   9.828 -0.1719 -0.0994 -0.0734
33192W        W64408  15.781  18.677   9.447  0.1206 -0.1653  0.1612
33193W        W64409  24.739   5.106   1.029  0.0108 -0.2561  0.1405
33194W        W64410  16.818   6.325   9.055  0.2460  0.4485  0.0900
33195W        W64411   1.200  10.569   1.081  0.2954 -0.4130  0.1566
33196W        W64412   8.280  25.815   0.201 -0.2640  0.0230 -0.0131
33197W        W64413   9.340  11.755   8.669 -0.0323  0.1899 -0.1868
33198W        W64414   6.779  18.047  10.380 -0.1074 -0.0908  0.0533
33199W        W64415  12.815   7.277   9.060 -0.1309  0.1466  0.0393
33200W        W64416  23.021  10.587   8.416  0.0042 -0.0804  0.1444
33201W        W64417  11.734  12.871   2.460  0.0463  0.0498 -0.3218
33202W        W64418  23.898  14.196   3.510  0.0423  0.2074 -0.0509
33203W        W64419  20.224  18.620   8.152  0.1243  0.0992 -0.1836
33204W        W64420  15.347   5.246   7.990  0.0903  0.0251  0.0761
33205W        W64421  12.576  21.298   8.003 -0.0480 -0.2423  0.2150
33206W        W64422   3.165   2.514   2.417 -0.3379 -0.3427 -0.1651
33207W        W64423  21.231  14.145   0.788  0.4466  0.2364 -0.0241
33208W        W64424  26.115   8.782   1.819  0.1069  0.0995 -0.2780
33209W        W64425  15.798  15.185   0.010 -0.3223 -0.2334  0.0401
33210W        W64426  14.328  18.526  10.399 -0.2554  0.3263  0.1660
33211W        W64427  20.084  25.867   8.577 -0.2030  0.2582 -0.1250
33212W        W64428  22.521  10.377   9.094  0.1127  0.0251 -0.0976
33213W        W64429  22.097  20.347   0.253  0.0587 -0.1199 -0.1388
33214W        W64430   4.910  10.907   1.633 -0.2090 -0.1092 -0.2371
33215W        W64431  25.919  21.556   2.976 -0.1029 -0.2725 -0.0750
33216W        W64432  20.597  17.521   8.353  0.1798 -0.1221  0.0621
33217W        W64433  10.639  26.950   2.802  0.0082 -0.3894 -0.0261
33218W        W64434  25.728  19.251   9.767 -0.0562 -0.4656  0.1402
33219W        W64435  25.091  19.441   0.688  0.2086 -0.1934 -0.3006
33220W        W64436   3.588  10.523   1.019 -0.0046 -0.3436  0.0979
33221W        W64437  12.269  14.104   9.486  0.1532  0.1180  0.0739
33222W        W64438   5.464   9.522   9.246 -0.1269 -0.1587  0.0232
33223W        W64439  26.917   6.130  10.005 -0.0614  0.2322 -0.0951
33224W        W64440   4.140  20.130   9.236  0.2790  0.1944 -0.0322
33225W        W64441  26.211   9.611   8.653  0.2666  0.0676  0.1709
33226W        W64442  15.618   9.869   1.799  0.2521 -0.2062 -0.2798
33227W        W64443   4.871  19.032   8.155 -0.2162  0.0609 -0.0972
33228W        W64444   3.885  14.492   8.758  0.1841 -0.1220 -0.1799
33229W        W64445  25.748  17.019   9.816  0.0235 -0.0007  0.0246
33230W        W64446  25.409   1.138   2.609  0.3647  0.1316  0.2361
33231W        W64447  17.963   0.069   0.404 -0.0853 -0.3352  0.0345
33232W        W64448  19.888  20.058  10.470  0.1882  0.2616 -0.2133
33233W        W64449  24.427  11.074   8.594 -0.1013  0.1158 -0.3979
33234W        W64450  18.155  21.235   9.918  0.0594  0.0094  0.1582
33235W        W64451  26.845   8.202   0.394  0.0027 -0.3016 -0.0332
33236W        W64452  26.531   4.668   9.637  0.0650  0.1514 -0.0596
33237W        W64453  19.311  25.863   2.429  0.2369  0.0112 -0.0007
33238W        W64454  24.491  17.558   2.980  0.1649 -0.2232 -0.4126
33239W        W64455  10.548   8.850   2.635  0.1164  0.2123  0.3878
33240W        W64456   2.960   8.214   1.728  0.0248 -0.0708 -0.1019
33241W        W64457   5.426  20.877   8.590  0.2282  0.1562  0.1543
33242W        W64458   7.358  23.204   8.385 -0.1662 -0.1415  0.0682
33243W        W64459   8.883   7.820   8.297 -0.1683  0.2029 -0.3074
33244W        W64460   6.797  20.660   2.004 -0.1833  0.4374 -0.2021
33245W        W64461  10.132   3.923   9.311 -0.1653 -0.2603  0.1767
33246W        W64462   6.741  23.320   1.579  0.0976 -0.1041  0.1500
33247W        W64463   2.707  16.948   1.269  0.1383  0.1575 -0.2425
33248W        W64464  21.752   0.289   1.007  0.0334  0.0159  0.2652
33249W        W64465  19.810  17.224   0.179 -0.1307 -0.0346 -0.1679
33250W        W64466  15.117   0.424   3.236  0.1683  0.2088 -0.2708
33251W        W64467  11.340   5.816   0.677 -0.4276  0.2171  0.0444
33252W        W64468  27.605  24.696   8.248  0.0491 -0.1864  0.5427
33253W        W64469  25.445   8.600   8.670 -0.2802  0.2059  0.0854
33254W        W64470  11.053  12.730   7.137 -0.2830  0.1723  0.0693
33255W        W64471  17.036   9.520   9.760  0.6760  0.1312  0.0135
33256W        W64472  13.555  13.185   1.197 -0.2528  0.0119  0.5496
33257W        W64473   7.159   1.345   0.862 -0.2756  0.1472 -0.0899
33258W        W64474   0.677   7.833   8.994 -0.1530  0.3507  0.0244
33259W        W64475  23.942   5.831   2.773 -0.2851  0.0852 -0.2165
33260W        W64476   2.371  16.882   9.673  0.0631 -0.0346  0.0806
33261W        W64477   0.176  22.176   9.563  0.0240  0.3286 -0.0889
33262W        W64478  14.822  22.520   0.269 -0.0960 -0.4730 -0.0879
33263W        W64479  17.604   5.252   9.018  0.0209  0.3540 -0.1316
33264W        W64480  22.121  21.631   8.410 -0.0098 -0.2279  0.2671
33265W        W64481   6.867  13.852   1.730 -0.2475 -0.1209 -0.0431
33266W        W64482   9.574   2.577   7.225 -0.1670 -0.2208  0.0442
33267W        W64483  22.297  22.841   8.091 -0.2062 -0.2014 -0.0156
33268W        W64484   1.981   6.998   9.961  0.3138 -0.0355 -0.0917
33269W        W64485  25.554   0.728   1.948  0.0469  0.2092  0.3495
33270W        W64486   6.054   1.486   2.393  0.1464  0.0293 -0.3027
33271W        W64487  11.604   9.711   3.134  0.1000  0.2280 -0.0287
33272W        W64488  23.975  22.905   8.251  0.3882 -0.1998 -0.3644
33273W        W64489   0.465  26.651   9.646 -0.0150 -0.1867 -0.3179
33274W        W64490  12.831  15.198   9.195 -0.2475 -0.1175 -0.3124
33275W        W64491  22.802   0.407   0.868  0.3323  0.0585  0.5618
33276W        W64492  25.103   7.777   2.021  0.2590 -0.2495  0.0234
33277W        W64493  17.738   1.098   1.818  0.0487  0.1008  0.0174
33278W        W64494  25.638  17.717   0.731  0.1690 -0.2700 -0.0800
33279W        W64495   4.969   7.654   1.807 -0.0742 -0.2866 -0.0502
33280W        W64496   2.189   5.940   0.806 -0.3122 -0.0586  0.1062
33281W        W64497  27.124  17.076   8.757  0.2965 -0.0324 -0.3160
33282W        W64498  27.152  16.633   1.268 -0.1974  0.0593  0.0124
33283W        W64499   6.366   0.224   2.559  0.0501  0.0375 -0.0262
33284W        W64500   9.799  23.015   9.367 -0.1461 -0.1311 -0.1706
33285W        W64501  21.190   8.142   0.599 -0.1014 -0.0070 -0.1911
33286W        W64502  20.655   0.166   9.678  0.2190  0.1248 -0.2467
33287W        W64503  16.142  23.789   2.795 -0.0326  0.1470 -0.2288
33288W        W64504  13.013   6.088   2.465  0.0566 -0.0887  0.0925
33289W        W64505  25.299  18.558   0.704  0.1207 -0.0264 -0.1796
33290W        W64506  10.080   7.336   8.105  0.2007 -0.1188  0.0248
33291W        W64507  26.455  15.043   1.124  0.2099 -0.3847 -0.0528
33292W        W64508   4.142  18.206   9.390 -0.1081  0.0707  0.0720
33293W        W64509  16.832  12.683   3.142 -0.4958  0.3444  0.1621
33294W        W64510  25.180  20.063   8.352 -0.0568 -0.1225  0.0749
33295W        W64511  23.966  13.625   7.599  0.2037 -0.0268 -0.1517
33296W        W64512   4.782   7.212   8.782  0.0989 -0.3126 -0.1087
33297W        W64513  10.987   7.263   0.935  0.0644  0.1104 -0.2375
33298W        W64514  22.010   4.889  10.034 -0.2087  0.2633 -0.0834
33299W        W64515  14.375   8.596   3.285 -0.1177 -0.1269 -0.1925
33300W        W64516  10.042  19.568   0.912 -0.1274 -0.1687 -0.2141
33301W        W64517   5.232  13.270  10.100 -0.0771 -0.1428  0.1299
33302W        W64518  18.760  20.266   1.843  0.2349  0.0640 -0.0074
33303W        W64519  24.682  15.623   1.460  0.0780 -0.0286 -0.1402
33304W        W64520   3.509   1.584   9.472  0.1036 -0.1206 -0.0025
33305W        W64521  14.367  23.489   1.427 -0.0479  0.1019  0.0815
33306W        W64522  16.923   7.004  10.212  0.2589  0.2153  0.1648
33307W        W64523  20.266  12.572   9.178 -0.0065 -0.2267  0.1117
33308W        W64524  15.316  25.786   8.817  0.0117  0.0918  0.1144
33309W        W64525  14.758  18.067   9.129  0.3007 -0.1993  0.0808
33310W        W64526  23.840  19.927   7.439 -0.0457  0.0689  0.2601
33311W        W64527   3.288  24.353   0.183  0.3517  0.0590 -0.2330
33312W        W64528  22.494   8.584   8.684  0.0228  0.3584  0.0892
33313W        W64529  17.918   2.090   8.162  0.0721  0.2579 -0.3322
33314W        W64530  14.760   8.658   0.547  0.0800  0.1042  0.2667
33315W        W64531  14.098  23.703  10.166 -0.1723 -0.0583  0.2211
33316W        W64532   3.007   3.699   1.789 -0.3193 -0.2048  0.1876
33317W        W64533  23.908   6.727   1.700  0.2690 -0.3195 -0.1105
33318W        W64534   1.944  10.442   8.132 -0.0070 -0.0718 -0.0474
33319W        W64535   6.605  21.498   0.151 -0.0525  0.3460 -0.3595
33320W        W64536  24.138  22.614   1.143 -0.3623  0.0566  0.1952
33321W        W64537   4.931   9.789   1.656 -0.1235 -0.3824  0.0068
33322W        W64538  13.138   8.765   2.492 -0.0066 -0.0587  0.0286
33323W        W64539  26.667   5.725   9.267 -0.1953  0.1110  0.2843
33324W        W64540  13.951   8.031   0.681  0.3461 -0.0618 -0.0396
33325W        W64541   8.155  27.046   1.131 -0.0840  0.1161  0.0457
33326W        W64542   5.439  25.504   2.687 -0.1829 -0.0043  0.1108
33327W        W64543  17.047  25.304   2.350 -0.2832 -0.4245  0.1607
33328W        W64544  20.126  15.289   1.384  0.0242 -0.0738  0.1244
33329W        W64545  27.588   8.954   3.015  0.1875 -0.2904 -0.2492
33330W        W64546  15.521   0.418   2.356 -0.2544  0.0929 -0.1886
33331W        W64547   9.924  27.467   8.803 -0.2157 -0.3044  0.3590
33332W        W64548   8.698   4.168   7.580  0.0032  0.2371 -0.1475
33333W        W64549  24.392   0.685   1.541 -0.1027 -0.1354 -0.2649
33334W        W64550   2.530  19.719   7.577  0.0885 -0.0480  0.3647
33335W        W64551   6.750  13.456   2.130 -0.3418 -0.0480 -0.2644
33336W        W64552  26.627   3.574   2.605  0.2708  0.2070 -0.0711
33337W        W64553  11.540  15.910   1.777 -0.1394  0.0184  0.0001
33338W        W64554   9.513   2.613   2.368 -0.0194 -0.1309 -0.1735
33339W        W64555   1.489   6.046   3.281 -0.1440  0.1206 -0.0856
33340W        W64556  25.578   8.034   0.576 -0.0959 -0.4251  0.0915
33341W        W64557   8.270   1.903   7.712  0.1839  0.0968 -0.1120
33342W        W64558  25.621  14.566   2.066 -0.1832 -0.0523  0.1466
33343W        W64559  17.932  14.001   8.023  0.2928  0.1015 -0.2475
33344W        W64560  14.423  22.744  10.112  0.0573  0.1969 -0.1607
33345W        W64561   2.371  24.684   3.435  0.1120  0.1928 -0.2031
33346W        W64562   6.715  11.129   3.603  0.3648 -0.2477  0.0205
33347W        W64563   8.128  18.025   9.926 -0.2216  0.0439 -0.0083
33348W        W64564   6.188  14.751   9.684 -0.2273  0.0007 -0.2275
33349W        W64565  19.693  24.596   1.404  0.0851 -0.0343 -0.3599
33350W        W64566  13.102   6.593   2.471 -0.1546  0.1486  0.1343
33351W        W64567   5.074  11.798   3.148 -0.0536 -0.0076 -0.2223
33352W        W64568  20.193  18.673   2.074 -0.0437  0.0307 -0.1971
33353W        W64569  18.719  10.673   9.536  0.0098  0.1940 -0.0596
33354W        W64570  14.993  25.653   8.478 -0.0301  0.2478 -0.0033
33355W        W64571  16.235  22.654   8.645 -0.0914  0.0464  0.0431
33356W        W64572  18.500   9.396   9.388  0.0801  0.1337  0.1911
33357W        W64573  11.096  25.198   8.615 -0.1789  0.0272 -0.0545
33358W        W64574  13.976  21.185   8.274  0.2487  0.0793 -0.0812
33359W        W64575  10.195  21.267   0.615  0.0441 -0.5040  0.4548
33360W        W64576  26.570   2.197   8.554  0.0076  0.0610  0.1616
33361W        W64577  20.801  15.985   0.493  0.0254 -0.0051 -0.0827
33362W        W64578  27.335  16.033   2.147 -0.3620 -0.3419 -0.2017
33363W        W64579   3.793   9.208  10.004 -0.0542 -0.1388 -0.1191
33364W        W64580  25.117  20.353   8.877 -0.2873 -0.1283 -0.2730
33365W        W64581   5.708  23.372   0.347  0.2221  0.0289 -0.1731
33366W        W64582  22.668  13.323   8.607 -0.1020  0.3378 -0.0688
33367W        W64583  21.161  14.900   9.331  0.1615 -0.3926  0.4189
33368W        W64584   5.164  20.573   8.824  0.1328 -0.2224 -0.0054
33369W        W64585  16.560  18.739  10.257 -0.0741  0.1816  0.0770
33370W        W64586  15.316  12.791   9.759  0.1875 -0.2069  0.2389
33371W        W64587  22.925  23.836   2.478  0.1392  0.1040  0.2272
33372W        W64588   8.707  26.573   2.912  0.0896  0.3120 -0.0186
33373W        W64589  14.015  19.018   8.025 -0.0542 -0.1729 -0.2092
33374W        W64590  17.554   2.200   3.110 -0.1065 -0.1246  0.1595
33375W        W64591  12.197  23.425   2.897 -0.3378  0.1042  0.1211
33376W        W64592   1.807  13.224   9.870  0.0365  0.3023  0.1427
33377W        W64593   0.282   6.382   1.139 -0.1303  0.1162  0.0544
33378W        W64594   1.406  18.905   0.658  0.1040 -0.1235  0.2658
33379W        W64595  10.844  15.525   0.620  0.1936 -0.1138 -0.2496
33380W        W64596   0.920   1.775   3.104  0.0027 -0.0244 -0.1852
33381W        W64597  18.305  12.851   0.799 -0.0039 -0.2531 -0.0688
33382W        W64598   4.020  27.439  10.147  0.1766  0.0154  0.2793
33383W        W64599  12.728   8.539   2.884 -0.1595 -0.0733  0.1911
33384W        W64600  25.167  26.918   8.791  0.1165  0.0063 -0.2378
33385W        W64601  25.324  14.546   3.587 -0.0743  0.2576  0.0732
33386W        W64602  25.703  18.587   7.818  0.1084 -0.2015  0.3019
33387W        W64603  17.360  17.277   3.025  0.0451 -0.0159  0.1621
33388W        W64604  17.875   8.844   9.057 -0.2217  0.2149 -0.1782
33389W        W64605   8.172  27.343   8.236 -0.3742 -0.0630  0.1039
33390W        W64606   8.386  15.458  10.256  0.0330  0.0908 -0.1837
33391W        W64607  17.044  18.101   1.308 -0.1489 -0.0224  0.0562
33392W        W64608  11.463  22.202   7.455 -0.0571  0.2446  0.1780
33393W        W64609  13.471   3.087   2.188  0.2308 -0.2225 -0.0370
33394W        W64610  12.527   7.331   1.563  0.2865  0.0134 -0.2078
33395W        W64611  22.808   8.219   3.810 -0.0652  0.0985  0.0221
33396W        W64612  15.510   4.021   9.365 -0.3138  0.2685  0.3830
33397W        W64613  11.873  24.834   2.915 -0.0263 -0.2075  0.0104
33398W        W64614  17.094   8.367   0.208 -0.3222  0.0446 -0.2838
33399W        W64615   0.450   2.119   1.301 -0.1082  0.0489  0.2812
33400W        W64616  15.763  22.235   8.101  0.3418  0.0936 -0.0613
33401W        W64617  14.977   8.185   1.927  0.2416 -0.1068 -0.1759
33402W        W64618  11.947   3.612   2.821  0.0877  0.0804 -0.1041
33403W        W64619   0.598  12.638   7.671 -0.0027  0.0633  0.2454
33404W        W64620   2.200  21.651   2.471 -0.1242  0.1194  0.1203
33405W        W64621   5.494  18.659   0.818 -0.0919  0.1640  0.2693
33406W        W64622   7.698   3.614   2.295 -0.2417 -0.0820 -0.0769
33407W        W64623  14.724   9.796   0.872  0.1865 -0.1529  0.1181
33408W        W64624   8.962   1.286   9.264  0.0525  0.3182 -0.1680
33409W        W64625  24.580  14.370   7.975 -0.0012 -0.0162 -0.3968
33410W        W64626  11.706   4.464   1.030  0.2716 -0.1110 -0.0828
33411W        W64627  27.366   1.678   2.490 -0.2289 -0.0799  0.1822
33412W        W64628   8.614  16.868   1.255 -0.0651  0.1083 -0.0640
33413W        W64629  14.648  20.744   1.583 -0.0934  0.2356 -0.0534
33414W        W64630   3.774  11.745   1.642 -0.1342  0.1095 -0.2440
33415W        W64631   1.660  17.583   8.424  0.2375 -0.1702  0.1336
33416W        W64632  23.993   3.963   0.518 -0.2912 -0.0655  0.0913
33417W        W64633  19.504   6.218   1.089 -0.0495 -0.0156 -0.0541
33418W        W64634   5.867  25.665   8.429  0.3338  0.2233  0.0123
33419W        W64635  20.320  20.104   3.775  0.0907  0.1125  0.1257
33420W        W64636   3.357  20.080  10.177 -0.0403 -0.0616  0.1117
33421W        W64637  22.730  18.258   1.691 -0.0765  0.0062  0.1688
33422W        W64638  15.036  15.635   3.213 -0.1726  0.2573  0.0156
33423W        W64639   3.191  23.361  10.124  0.0094  0.3071 -0.1571
33424W        W64640   8.132  22.551   7.527 -0.1375 -0.0912  0.2323
33425W        W64641  20.873  24.493   9.810  0.0309 -0.1837 -0.1780
33426W        W64642  27.492  19.440   9.857  0.1117 -0.2002 -0.0223
33427W        W64643   4.772  19.700   1.525 -0.2144 -0.0270  0.1654
33428W        W64644  19.685  12.842   2.960 -0.1651  0.0315  0.1465
33429W        W64645  16.241  17.727   1.277 -0.0393  0.2332  0.4479
33430W        W64646  27.582  22.215  10.077  0.0236 -0.0166  0.3955
33431W        W64647  26.750   5.516   3.907 -0.1193  0.0844 -0.0223
33432W        W64648   4.498   3.564  10.481  0.0124  0.0223 -0.3828
33433W        W64649   2.626   5.894   1.192 -0.2187 -0.0506  0.1776
33434W        W64650   1.130   0.026   2.924  0.1502  0.1098  0.5660
33435W        W64651   8.533  20.680   2.858 -0.1463 -0.0257 -0.0771
33436W        W64652  17.038  13.236  10.534 -0.1549 -0.3486  0.1077
33437W        W64653   0.260   0.355   1.841  0.2825 -0.3241 -0.0237
33438W        W64654   1.547  16.739   8.635  0.0276  0.2020  0.1371
33439W        W64655  25.724  12.195   9.571 -0.1806  0.1415  0.0855
33440W        W64656   8.968  23.076   0.294 -0.2903  0.1577  0.1026
33441W        W64657  25.981   3.384   9.982 -0.3279 -0.0316  0.0637
33442W        W64658  24.658  22.985   3.190  0.0784 -0.1205 -0.1785
33443W        W64659  26.298  12.703   0.296  0.0463 -0.0893 -0.1547
33444W        W64660  12.607  15.874   8.761 -0.0226 -0.0249 -0.0795
33445W        W64661   9.678  12.564   0.161  0.2073  0.1391  0.0422
33446W        W64662  26.305  12.543   9.511  0.2204 -0.2334 -0.1779
33447W        W64663   6.369  11.728   7.999  0.2005 -0.2872  0.0919
33448W        W64664   4.539   1.565   2.543 -0.1016 -0.2087  0.0544
33449W        W64665  10.202   8.622  10.305 -0.0032  0.2068 -0.4040
33450W        W64666  27.091  16.310  10.051  0.0758  0.1246 -0.3054
33451W        W64667   9.362   7.704   0.742  0.2371 -0.1812 -0.0356
33452W        W64668  22.436  24.000   8.287  0.0651 -0.0165  0.1801
33453W        W64669  20.146   5.567   9.939  0.0083  0.0702  0.0720
33454W        W64670   4.828  24.243   3.734  0.0000  0.0394 -0.1227
33455W        W64671   5.419   8.974   7.555  0.0965 -0.1357 -0.1767
33456W        W64672  13.600  23.306   2.437 -0.1502  0.2471  0.0349
33457W        W64673   1.334  11.865   0.256  0.2345 -0.1329  0.1242
33458W        W64674  15.005  18.882   3.519 -0.1230 -0.0023 -0.1161
33459W        W64675  21.596  16.231   8.922  0.2504  0.0330 -0.1738
33460W        W64676  19.914  23.847   3.913  0.1071 -0.0873 -0.1507
33461W        W64677   7.734   9.338   2.262  0.2033  0.1508 -0.3003
33462W        W64678  11.042  10.164   0.429  0.1165 -0.0062  0.1664
33463W        W64679   2.810  13.082  10.083  0.1158 -0.4092  0.2554
33464W        W64680  24.375  16.438   7.877 -0.0637  0.1035 -0.1445
33465W        W64681  23.430  22.922  10.533  0.0496 -0.2919  0.0107
33466W        W64682   8.367  20.015   9.559  0.2416  0.2822 -0.1778
33467W        W64683  15.768   0.862   0.555  0.0789 -0.1641 -0.0453
33468W        W64684  23.639  23.274   8.466  0.4475  0.0980  0.1460
33469W        W64685  16.641  11.420   0.528  0.1977 -0.2171 -0.1959
33470W        W64686   1.545  19.893   9.210  0.0573  0.0115 -0.0951
33471W        W64687  24.458  25.580   0.531 -0.1129 -0.1984 -0.1270
33472W        W64688  10.481  18.489   1.103 -0.0163 -0.0223 -0.3079
33473W        W64689  19.747   9.587   9.591  0.2117  0.2023  0.1037
33474W        W64690  20.435  23.095   2.379 -0.1592  0.2974  0.1123
33475W        W64691   0.212  23.986   1.982  0.0570 -0.1257  0.1049
33476W        W64692   7.088  17.401   2.230  0.1518 -0.0645  0.0199
33477W        W64693  14.283   1.369   2.212 -0.5826 -0.0516  0.0931
33478W        W64694   6.309  10.441   2.030  0.1165  0.1907  0.0527
33479W        W64695  17.745  15.776   9.629 -0.1795  0.0321 -0.0462
33480W        W64696   3.084   3.873   9.950  0.1635  0.1275  0.0200
33481W        W64697  21.347  25.065   1.345 -0.2685 -0.0720  0.2427
33482W        W64698  14.886  23.886   9.616  0.1826  0.1057  0.4346
33483W        W64699  26.374   4.882   2.934 -0.0466 -0.3573 -0.0686
33484W        W64700  13.214  12.180   0.095  0.0886 -0.0901 -0.0718
33485W        W64701  25.851  11.819   3.488  0.1287  0.2175 -0.0707
33486W        W64702  26.441   3.103   9.257 -0.1760 -0.1470 -0.1624
33487W        W64703  15.610  17.561   2.692 -0.1094  0.1791  0.2338
33488W        W64704  18.590   3.378   1.998  0.2535  0.3279  0.1042
33489W        W64705   7.868  10.503  10.075  0.1170  0.3478  0.0712
33490W        W64706  11.085   5.581   2.257  0.2188 -0.0925 -0.0774
33491W        W64707  18.552   0.443   7.717 -0.2420  0.0816 -0.2975
33492W        W64708  24.811   1.842   2.230  0.0255  0.0696  0.0497
33493W        W64709  21.062  23.064   0.272  0.0278  0.1841  0.0685
33494W        W64710   1.488  11.204   0.844 -0.0245 -0.0568 -0.2362
33495W        W64711  16.762  26.807   0.772  0.0759 -0.1345 -0.1602
33496W        W64712   8.248   6.145   1.684 -0.4979  0.2574  0.1570
33497W        W64713   2.767  20.283   8.483  0.0692 -0.1579  0.0878
33498W        W64714  14.000   6.548   2.854 -0.1183 -0.2108  0.1073
33499W        W64715  10.559  15.332   7.857 -0.2133 -0.2716 -0.0509
33500W        W64716   7.026   1.544   8.379  0.0935 -0.1358 -0.0163
33501W        W64717   8.490  13.734   2.258 -0.1706  0.2503  0.2005
33502W        W64718  10.676  18.365   0.125  0.2692 -0.0756  0.2091
33503W        W64719  11.930   4.943   0.955 -0.0615 -0.0255 -0.1578
33504W        W64720  13.702   2.701  10.428  0.0284 -0.0002 -0.0824
33505W        W64721   5.559  24.953   2.556  0.2374  0.3516 -0.1516
33506W        W64722  18.331  14.498   7.552 -0.5416  0.4193 -0.0962
33507W        W64723  10.745  10.130   1.895  0.0196 -0.2264 -0.0156
33508W        W64724  26.833  24.545   1.858  0.5315  0.2312 -0.3245
33509W        W64725   4.348  26.460   3.136  0.3199 -0.0619  0.2515
33510W        W64726  22.520  14.233   7.970  0.2322  0.0924 -0.0829
33511W        W64727   3.242   5.956   1.662 -0.2704  0.0161 -0.4091
33512W        W64728  12.990   6.952   2.067  0.0115  0.3356  0.2909
33513W        W64729   9.039  25.164  10.155  0.1038 -0.2165  0.1829
33514W        W64730   2.728  23.834   8.922  0.2014 -0.2491  0.2956
33515W        W64731  14.568  15.822   8.338  0.1679  0.1533 -0.0115
33516W        W64732   7.143  15.879   1.821  0.0575 -0.2622 -0.1301
33517W        W64733   8.944  14.722  10.213  0.1397 -0.0337  0.1532
33518W        W64734   8.955  25.999  10.292  0.2153  0.2312  0.0374
33519W        W64735  26.957   6.490   1.779 -0.2652  0.0134  0.0021
33520W        W64736  19.661  23.990   3.481  0.0759 -0.2864  0.0656
33521W        W64737  25.399  19.021   2.382 -0.0287  0.2261 -0.2011
33522W        W64738   4.667   0.729   3.904  0.0308 -0.0913 -0.2418
33523W        W64739  20.426  21.778   9.318 -0.0511  0.0245 -0.0441
33524W        W64740   8.766  19.394   3.593 -0.1439 -0.3126  0.2353
33525W        W64741  11.379  15.705   0.936 -0.0750  0.1698  0.0457
33526W        W64742   6.122  11.711   8.443  0.0311  0.0367 -0.1450
33527W        W64743   2.108  21.266   2.191 -0.1445 -0.2732 -0.1422
33528W        W64744  26.094  14.800   2.106  0.2316  0.0818  0.0573
33529W        W64745  26.853  10.396   0.700 -0.1075  0.4210 -0.0271
33530W        W64746  21.669   9.247   0.720 -0.1032  0.0444  0.0184
33531W        W64747  19.604   3.251  10.210  0.2866  0.0024 -0.5719
33532W        W64748  11.021  22.751   9.069  0.2702  0.1526  0.1807
33533W        W64749  11.224  20.414   8.280 -0.1157 -0.2337 -0.1322
33534W        W64750  25.583   7.733   8.762 -0.0460  0.4178 -0.0051
33535W        W64751  25.612   8.551   0.530 -0.0246  0.1919  0.2621
33536W        W64752  10.355   8.177  10.061  0.0021 -0.1440 -0.0753
33537W        W64753   0.075  19.015   8.694  0.1906  0.0497 -0.0070
33538W        W64754   5.837  16.653   1.336  0.0650  0.0192  0.2658
33539W        W64755  25.370  10.794   1.828  0.1252 -0.0807 -0.4743
33540W        W64756   3.423  14.782   8.659 -0.0460 -0.2009 -0.4520
33541W        W64757  13.930   2.830   9.255 -0.3365 -0.2562 -0.1967
33542W        W64758  13.525  22.686   0.626 -0.4331 -0.5025 -0.0352
33543W        W64759  26.324  21.135   0.208 -0.0228  0.3240  0.0561
33544W        W64760  17.436  15.203   3.328 -0.1497 -0.2213 -0.2321
33545W        W64761  12.092  22.473   0.136  0.3053  0.0037  0.2164
33546W        W64762  12.270  13.102   7.884  0.0820 -0.2600 -0.0766
33547W        W64763  27.098   2.323   1.144  0.0078  0.1941  0.1330
33548W        W64764   7.611   4.154   8.195  0.2291 -0.2904 -0.3147
33549W        W64765   4.875   4.713   0.826 -0.2879 -0.1673  0.3869
33550W        W64766  26.427   1.650   8.515 -0.1699  0.2922  0.1405
33551W        W64767  21.736  26.918   8.141 -0.1864  0.0798 -0.0410
33552W        W64768  21.179  22.628   3.225  0.1605  0.0601  0.0078
33553W        W64769  15.522   9.627   2.465  0.2050  0.1227 -0.0437
33554W        W64770  13.730  16.512   7.726 -0.1170 -0.1646 -0.0747
33555W        W64771  16.204  17.918   8.204  0.1360 -0.0575 -0.0884
33556W        W64772  15.384   5.554   8.386  0.0544 -0.0676 -0.0581
33557W        W64773   6.646   8.604   2.474 -0.0503 -0.1657 -0.1890
33558W        W64774   7.529   7.724   9.510  0.0263 -0.3209 -0.2211
33559W        W64775  11.913   9.043   1.786  0.0090  0.0861 -0.2193
33560W        W64776   0.643   6.462   2.547 -0.1464 -0.0075 -0.1229
33561W        W64777  16.302   8.528   7.372  0.1537  0.0871 -0.0840
33562W        W64778  18.927   1.820   1.050  0.0603 -0.1183 -0.1654
33563W        W64779  17.362   0.828   0.918 -0.3927  0.0847  0.0303
33564W        W64780   8.273  13.134  10.015 -0.3278 -0.0839 -0.1459
33565W        W64781   3.835   2.710  10.524 -0.2564 -0.0307  0.0560
33566W        W64782   4.437  10.096   8.047 -0.0781  0.1435  0.1086
33567W        W64783   0.303   3.541   1.672 -0.2000 -0.1325 -0.1354
33568W        W64784  17.113   9.732   0.842  0.2926  0.3400 -0.0060
33569W        W64785  16.805   4.199   9.381 -0.0607 -0.3580  0.0645
33570W        W64786  15.767   9.365   1.561  0.0597 -0.2461  0.2159
33571W        W64787   2.463  25.383   1.049 -0.0292 -0.0627 -0.0841
33572W        W64788  23.538  17.394   3.122  0.0712  0.2206  0.2153
33573W        W64789   2.203  19.104   3.248 -0.0324  0.1485 -0.1004
33574W        W64790   7.596   1.132   2.482 -0.1606  0.0501  0.0060
33575W        W64791  21.058   9.243   0.920  0.0069 -0.4315  0.0204
33576W        W64792  11.349  25.276   0.174 -0.4647  0.1482 -0.1474
33577W        W64793  17.132  18.342   9.846  0.1341 -0.0913  0.0570
33578W        W64794  15.765  24.912   7.727 -0.1409 -0.0904 -0.2069
33579W        W64795   4.853  23.982   9.271 -0.3096  0.1386  0.1103
33580W        W64796   8.324  24.814   3.729  0.2042 -0.4565  0.0920
33581W        W64797  11.736  12.865   3.411 -0.1882 -0.0046 -0.3563
33582W        W64798   9.996  26.322   9.614  0.0531  0.1461 -0.1579
33583W        W64799   0.717  27.238   8.423 -0.1421  0.1368 -0.3226
33584W        W64800  23.954  11.138   2.467  0.1441 -0.0764  0.0640
33585W        W64801   9.599  13.360  10.213  0.1369 -0.1899 -0.0456
33586W        W64802   7.573   0.891  10.108 -0.1876  0.0338  0.1520
33587W        W64803  14.661   2.042   4.172  0.1402 -0.1213 -0.0414
33588W        W64804  24.807  10.910   0.925  0.0752 -0.1965  0.2901
33589W        W64805  15.713   1.560   3.475  0.1734  0.0225 -0.0027
33590W        W64806  16.127  21.947   1.339 -0.1212  0.2025 -0.1219
33591W        W64807  25.209  14.316  10.376  0.0192 -0.0819 -0.1846
33592W        W64808  19.617  13.552   0.198  0.1007  0.3267  0.0261
33593W        W64809   2.655  13.439   9.654  0.1423  0.0859  0.1498
33594W        W64810  17.247  24.711   1.288  0.0846  0.2881  0.3183
33595W        W64811  24.440   6.162  10.246 -0.1095 -0.0811 -0.0312
33596W        W64812  11.887  14.639   0.902  0.2212  0.1678  0.2193
33597W        W64813   5.397  26.000   9.995  0.0690  0.0241  0.2991
33598W        W64814   0.974   9.824   9.559  0.0984 -0.2840 -0.0061
33599W        W64815   0.425   6.701   7.573  0.2029 -0.0336  0.1656
33600W        W64816   3.640  14.730   1.739  0.0505 -0.4290 -0.0921
33601W        W64817  22.328  19.937   0.479  0.2438  0.0268 -0.0098
33602W        W64818  16.815   9.321   2.028 -0.1214  0.0320 -0.1334
33603W        W64819   8.167  22.330   2.167  0.0775 -0.2810  0.0915
33604W        W64820  12.885  17.596   8.100 -0.1274  0.1344  0.1162
33605W        W64821  20.440  17.293   7.916 -0.0738 -0.0453  0.2934
33606W        W64822  21.235  14.824   8.463 -0.1280 -0.2129  0.1070
33607W        W64823  27.096  19.784   9.944  0.1256  0.1270  0.0240
33608W        W64824  27.142   9.646   3.784 -0.2528 -0.0382  0.0476
33609W        W64825  25.077   3.517   0.045 -0.3022  0.1835 -0.1848
33610W        W64826   9.210  20.120   3.188 -0.1454 -0.0693  0.1172
33611W        W64827  25.563   0.303   1.656 -0.1068 -0.1403  0.2036
33612W        W64828   6.431  10.978   9.365 -0.0111 -0.1625 -0.0708
33613W        W64829  18.105   9.897   7.129 -0.0385  0.0569 -0.2654
33614W        W64830  21.917   7.995   8.613  0.2491 -0.1213  0.0443
33615W        W64831   7.323  24.564  10.359 -0.2401  0.0170 -0.3608
33616W        W64832  19.954   6.543   9.975  0.4004 -0.0417 -0.0829
33617W        W64833  21.515  13.776   7.296 -0.0754  0.2405 -0.0983
33618W        W64834   6.957  10.824   1.502  0.3201 -0.2919  0.1303
33619W        W64835  10.927   9.910   8.294  0.1687  0.3280  0.2081
33620W        W64836  15.780  15.847   8.560  0.1781 -0.1450 -0.1219
33621W        W64837  19.997  24.440   1.028 -0.2026 -0.3602  0.0116
33622W        W64838  20.210   9.835   8.324 -0.0773  0.0977  0.4071
33623W        W64839  15.452   7.115   9.844 -0.2079 -0.0608  0.4354
33624W        W64840  25.012  11.930   8.804  0.0704 -0.3276  0.1506
33625W        W64841   3.652  22.700   3.552 -0.0355 -0.0709 -0.0249
33626W        W64842  18.090  12.207   3.344 -0.2511 -0.4273 -0.2794
33627W        W64843   9.600  20.057   0.227 -0.0747  0.0745  0.0986
33628W        W64844  13.379  24.040   1.971 -0.1928  0.1970  0.1985
33629W        W64845  20.113   2.340   0.279  0.1295  0.2413 -0.1125
33630W        W64846  27.276  18.036   9.173  0.0084  0.1811  0.1546
33631W        W64847  21.291   6.977   0.517 -0.0752 -0.1750  0.0689
33632W        W64848  10.101  11.644  10.341  0.1704 -0.1541  0.0212
33633W        W64849  25.836  10.055   3.262 -0.0660 -0.2062  0.2292
33634W        W64850  24.370   1.893   9.474  0.1318  0.4709 -0.3888
33635W        W64851  20.399   8.487   3.029  0.0991  0.1807 -0.2336
33636W        W64852  16.198   5.078   3.694 -0.2956 -0.2236  0.2398
33637W        W64853   2.428  23.892   1.238 -0.0438 -0.0297  0.0516
33638W        W64854  11.210  26.093   2.734 -0.0128 -0.0278 -0.1447
33639W        W64855   3.390  24.818   1.512 -0.0688 -0.1446  0.1879
33640W        W64856  18.264   9.293   9.851  0.0709 -0.1552 -0.0594
33641W        W64857  17.483   6.103   8.350  0.1185 -0.2258 -0.3487
33642W        W64858  15.460  21.491   1.071  0.1531  0.3369 -0.0240
33643W        W64859  26.754   0.899   9.156 -0.0751  0.3405 -0.0608
33644W        W64860  15.844   9.057   9.917  0.0321  0.2739  0.5583
33645W        W64861   9.878   8.149   2.704 -0.0684  0.1873  0.1264
33646W        W64862   4.710  15.087   8.947  0.0012 -0.0474 -0.0111
33647W        W64863  17.083  10.357   0.669  0.1108  0.0069  0.0088
33648W        W64864   2.124  16.113   2.739  0.0104 -0.0886 -0.0141
33649W        W64865  22.810  20.919   1.592  0.1553  0.1235  0.1556
33650W        W64866  21.808  18.533  10.349  0.0534 -0.2910 -0.0359
33651W        W64867  19.451   2.696  10.152 -0.1958  0.0243 -0.1322
33652W        W64868   5.604  20.250   2.670 -0.0975 -0.2419  0.2291
33653W        W64869  19.449  24.606   1.000 -0.0529 -0.2565  0.0096
33654W        W64870   1.062   6.228   0.665  0.1536  0.0275  0.1451
33655W        W64871  21.242   4.982   9.353 -0.0854  0.3774 -0.2036
33656W        W64872  13.048   9.437   8.190 -0.2387  0.2788 -0.0552
33657W        W64873   6.379  23.297   8.635 -0.2025  0.1518 -0.1974
33658W        W64874  13.494  26.544   9.193 -0.0791  0.1758  0.1083
33659W        W64875  22.043  11.345   0.419 -0.1040 -0.0806 -0.0013
33660W        W64876   5.577  26.023   2.578 -0.2801 -0.0403  0.1265
33661W        W64877  15.483  10.950  10.543 -0.3845 -0.1534  0.0078
33662W        W64878   2.320  17.340   8.309  0.0546  0.0069  0.0191
33663W        W64879  18.188  14.972   1.922  0.3092  0.1213 -0.1117
33664W        W64880  26.099  11.013   2.113 -0.0697 -0.1299  0.1291
33665W        W64881  11.934   6.595   9.689  0.4209  0.4492  0.0276
33666W        W64882  13.391   0.058   0.279  0.1419  0.0198  0.4033
33667W        W64883   1.830   9.383   9.946  0.0621 -0.1326 -0.1060
33668W        W64884  26.690  20.430   1.962 -0.1135  0.2738 -0.0832
33669W        W64885   8.756   5.551   7.663  0.1743 -0.0488 -0.1537
33670W        W64886  11.043  21.415   8.689  0.0317  0.0037  0.0012
33671W        W64887  18.280   2.391   7.318 -0.1652  0.5062  0.2259
33672W        W64888   4.113  23.201   0.967 -0.0243  0.0370 -0.3441
33673W        W64889  10.983   1.555   9.634 -0.2385  0.0159 -0.0714
33674W        W64890   5.520  12.713  10.323 -0.0322 -0.1991 -0.1438
33675W        W64891   5.947  16.296   8.256 -0.1577 -0.3321  0.0172
33676W        W64892   1.915  18.064   3.139 -0.0290  0.0167  0.2586
33677W        W64893   8.704  17.166   1.606 -0.1057 -0.0750 -0.1838
33678W        W64894   3.589  15.817   8.729  0.2765  0.2166 -0.0931
33679W        W64895  17.975   1.408   7.544  0.4058 -0.1367 -0.1424
33680W        W64896  20.959  23.844   7.668  0.0218 -0.0942  0.0846
33681W        W64897  17.452  25.015   3.403 -0.1953 -0.0758 -0.0413
33682W        W64898  10.059  26.553  10.515 -0.2603 -0.2261  0.2938
33683W        W64899  26.354   1.996  10.185  0.2680  0.1119 -0.3446
33684W        W64900   0.573  21.855   2.396 -0.1426 -0.0972 -0.0822
33685W        W64901  19.452   6.801  10.273 -0.1719 -0.1139 -0.0305
33686W        W64902  20.566  24.547   2.914  0.0587  0.0025  0.1373
33687W        W64903  24.291  20.845  10.174 -0.0769  0.1423 -0.1812
33688W        W64904   5.363  21.675   9.259 -0.0446 -0.1929  0.0796
33689W        W64905  19.142   9.799   2.733 -0.2265  0.1477 -0.0314
33690W        W64906  24.278   9.161   3.248 -0.1118 -0.1652  0.0598
33691W        W64907  22.913  20.843   8.643  0.1842  0.1069 -0.1560
33692W        W64908  22.503  13.029  10.263  0.0556  0.0099 -0.1428
33693W        W64909   3.318  10.998   1.001  0.1214 -0.2625 -0.1454
33694W        W64910   4.804  10.282   1.727 -0.1639 -0.1600  0.3441
33695W        W64911  15.683   0.616   0.968 -0.1998  0.1962  0.3172
33696W        W64912  26.944  22.130   1.036 -0.0704  0.1004  0.0173
33697W        W64913  24.204  13.279   9.664  0.1326  0.0280  0.5423
33698W        W64914   8.020   9.484   1.871  0.1571 -0.1558  0.0214
33699W        W64915  15.142  12.682   1.114 -0.1274 -0.2864 -0.0962
33700W        W64916   2.784  16.786   0.246  0.0962 -0.0560 -0.2319
33701W        W64917  25.770  11.667   0.997 -0.1413 -0.0021 -0.0169
33702W        W64918  21.272  27.065   8.348 -0.0844 -0.3198  0.2495
33703W        W64919   6.130  15.771   9.796  0.1307 -0.0951  0.2380
33704W        W64920  10.662   1.323   2.161  0.1506 -0.2118 -0.0958
33705W        W64921   6.401  19.551   1.050 -0.0858 -0.2494 -0.3082
33706W        W64922  11.637  26.155   3.029 -0.0515  0.0718  0.3772
33707W        W64923  16.398  22.449  10.114 -0.1450  0.0736 -0.2247
33708W        W64924  22.181   0.322   8.240  0.2496  0.0722  0.1010
33709W        W64925  18.722  17.177   9.554  0.0230  0.1831  0.1440
33710W        W64926  12.551  26.312  10.299 -0.0805  0.2661  0.1045
33711W        W64927  13.431  25.949   0.460 -0.0461 -0.5509 -0.1126
33712W        W64928  21.381  17.101   7.627 -0.2810  0.0067 -0.1090
33713W        W64929  19.030  14.019   3.297 -0.0208 -0.0182 -0.0325
33714W        W64930  10.634  14.706   1.501 -0.2302 -0.0618  0.1371
33715W        W64931  12.184   0.765   2.011 -0.2776  0.2181 -0.2870
33716W        W64932   3.923  23.120   8.621 -0.1237  0.1141  0.2339
33717W        W64933  12.585  20.716  10.273 -0.3595  0.0717  0.0349
33718W        W64934  27.248   2.461   9.029 -0.0140 -0.2263 -0.1562
33719W        W64935  20.477  10.306   8.160 -0.1840 -0.4308  0.0422
33720W        W64936  14.711   7.270   1.187 -0.0978  0.0134  0.2245
33721W        W64937  19.500  16.717   3.158 -0.3554  0.1322 -0.0029
33722W        W64938   2.344  20.934   0.227 -0.2657 -0.3442 -0.1555
33723W        W64939   1.693  19.346   8.284  0.0734 -0.0524  0.3560
33724W        W64940  22.579  23.074   0.714 -0.1208  0.0127 -0.0627
33725W        W64941  21.764   3.526   8.662  0.1467 -0.0554  0.0806
33726W        W64942   7.692   1.488   9.394 -0.3601  0.0480  0.1120
33727W        W64943  23.910  11.660   0.739  0.1757  0.1031  0.2080
33728W        W64944  17.779  10.125   0.128 -0.2434 -0.0064 -0.4068
33729W        W64945   1.953   4.863   7.711  0.1063 -0.3139 -0.0451
33730W        W64946  12.183  22.578   7.908  0.0346  0.0484  0.1767
33731W        W64947  13.392   2.833   2.682  0.1562 -0.1746  0.0663
33732W        W64948  25.301  12.085   1.718  0.1738 -0.1775  0.2895
33733W        W64949  19.342   1.499   7.312  0.1564  0.2445 -0.2591
33734W        W64950   5.947  26.894   3.641 -0.0237 -0.2707  0.1265
33735W        W64951  25.762  16.816   3.226  0.3403  0.0084 -0.1441
33736W        W64952  22.621   8.983   9.035  0.0907  0.0122  0.0778
33737W        W64953  19.360  23.863   4.104  0.0799 -0.1233 -0.3322
33738W        W64954   7.707  26.950   1.748  0.4218 -0.0950  0.1938
33739W        W64955  24.137   4.559  10.322  0.0737 -0.0864  0.5358
33740W        W64956   5.743   8.274   8.093 -0.0459 -0.3337 -0.0416
33741W        W64957  15.913   2.494   8.078 -0.1649 -0.2089  0.1754
33742W        W64958  17.371   8.744  10.280 -0.1692  0.1666  0.1956
33743W        W64959   8.938  19.321   0.206  0.3873 -0.0752  0.2429
33744W        W64960   3.569  12.827   9.171  0.0781  0.0905  0.0844
33745W        W64961   6.905  23.646  10.361  0.2176  0.0317  0.2482
33746W        W64962  18.372  25.334   9.605 -0.2485  0.0229  0.1157
33747W        W64963  27.278  12.470   9.787 -0.0464  0.0094 -0.2387
33748W        W64964  15.761  21.658   8.938 -0.2347 -0.1950 -0.0442
33749W        W64965   4.400  25.167   9.376  0.1238 -0.3693 -0.4074
33750W        W64966  24.883   6.201   8.272 -0.3392  0.3539  0.1636
33751W        W64967   4.675  20.137   1.211 -0.2764  0.0614  0.1347
33752W        W64968  21.297   9.561  10.404  0.0304 -0.1881  0.0638
33753W        W64969   9.446  10.775   1.512  0.2386  0.0523 -0.2348
33754W        W64970  20.460   5.236   1.450  0.1032 -0.2820  0.2314
33755W        W64971  14.817  20.371   8.180 -0.1635  0.1792 -0.0715
33756W        W64972  23.015  10.089   3.736 -0.0912  0.1612 -0.0331
33757W        W64973  20.591  12.619   0.737 -0.0957  0.0593 -0.0753
33758W        W64974  14.654  18.469   1.461  0.0068  0.1353  0.2153
33759W        W64975   6.424   6.418   2.001  0.1695  0.0464  0.0643
33760W        W64976   0.962   2.895   3.765 -0.1107 -0.1672  0.0778
33761W        W64977   2.200   1.296   9.580 -0.1331 -0.1105  0.3320
33762W        W64978   8.065   0.035   0.172  0.1697  0.2637  0.1505
33763W        W64979   1.708   0.210   0.405 -0.0391 -0.1456 -0.0713
33764W        W64980  23.562  27.430   1.411  0.4265  0.3042 -0.0141
33765W        W64981  10.384  16.325   2.285 -0.5452 -0.2352 -0.0372
33766W        W64982   1.393  15.508   0.118  0.0350 -0.0344 -0.1156
33767W        W64983  20.946  17.973   7.627  0.0252  0.2815  0.0058
33768W        W64984  12.496  10.500   1.085 -0.1945 -0.2018  0.1922
33769W        W64985  10.077  16.894   0.947 -0.1492  0.5167  0.1436
33770W        W64986  19.569  19.222  10.447 -0.0574 -0.1756  0.2061
33771W        W64987  21.805  17.640   8.656 -0.0108 -0.2378  0.2601
33772W        W64988  25.388  25.112   0.351  0.1999  0.0532 -0.3783
33773W        W64989   5.141  11.804  10.344 -0.4156  0.2546  0.0569
33774W        W64990   2.255  25.569   2.827 -0.1716 -0.1472  0.0937
33775W        W64991   8.771  21.860  10.418 -0.0452 -0.0823  0.1285
33776W        W64992   4.451  10.837   3.349 -0.3507 -0.0302  0.1123
33777W        W64993  25.079  24.237  10.538  0.3835 -0.4042 -0.2858
33778W        W64994  23.761  14.321   0.582 -0.3447 -0.6048  0.1036
33779W        W64995  17.565  24.463   7.359 -0.1571  0.2616  0.1583
33780W        W64996  19.579  12.719   8.505 -0.2176 -0.2285  0.1086
33781W        W64997   1.898  16.998   0.423  0.1497 -0.0790  0.0073
33782W        W64998  18.531  11.812   8.173  0.2679  0.2619 -0.3645
33783W        W64999  17.448   6.722   1.096  0.2255 -0.0978  0.3072
33784W        W65000   4.243   1.472   2.171  0.1126  0.0677  0.0353
33785W        W65001   8.986  14.702   0.188 -0.0295  0.1791  0.0068
33786W        W65002   3.354   3.508   0.994  0.1346  0.0776  0.1047
33787W        W65003  19.918   1.446   7.992 -0.0195 -0.3915  0.0788
33788W        W65004  19.320  12.327   9.248 -0.1566  0.1038 -0.1641
33789W        W65005  18.616  10.966   0.521 -0.1660 -0.1026  0.2482
33790W        W65006  26.896   0.251  10.064 -0.0885  0.1029  0.0654
33791W        W65007   6.874   6.427   2.985  0.1379  0.1394 -0.1767
33792W        W65008  15.151  11.112  10.206 -0.2645  0.2063  0.0315
33793W        W65009   3.384   8.156   3.475 -0.2127  0.0792  0.2368
33794W        W65010  27.417  16.947   8.340  0.1390  0.0203  0.1976
33795W        W65011  10.533  13.212   9.773 -0.0390 -0.0454  0.0443
33796W        W65012  23.087  25.615   0.669  0.0483  0.0069  0.0664
33797W        W65013  12.245  25.730   3.564 -0.1742 -0.1884 -0.1159
33798W        W65014   4.148  12.453   2.251 -0.2242  0.0182 -0.0017
33799W        W65015   1.651   7.574   9.514  0.0626 -0.0435  0.1606
33800W        W65016  20.774  15.520   7.512 -0.1048 -0.4810  0.1324
33801W        W65017  16.922   3.330   1.904 -0.0388  0.0518 -0.0347
33802W        W65018   8.486  27.613   8.893  0.1566 -0.0727  0.2219
33803W        W65019  14.660  26.972   1.591  0.0879  0.1354  0.0309
33804W        W65020  27.576  20.305   9.244  0.2462 -0.2610 -0.0450
33805W        W65021  16.625   8.916   2.387 -0.0773  0.0257 -0.2767
33806W        W65022  25.152  15.136  10.151 -0.1743  0.0076  0.1619
33807W        W65023  20.924  13.140   7.393 -0.1106  0.3286 -0.0202
33808W        W65024  14.010  20.150  10.341  0.1989  0.0303  0.0861
33809W        W65025  15.460  13.994   8.193 -0.0488 -0.1925 -0.0587
33810W        W65026   1.369  24.200   8.946  0.1624  0.1094  0.0643
33811W        W65027   8.682  16.496  10.364 -0.0011  0.0898 -0.0077
33812W        W65028  15.273   7.048   8.371  0.0311 -0.1169  0.0912
33813W        W65029   0.591   0.246  10.357  0.1979 -0.2656 -0.0614
33814W        W65030   1.241   1.824   2.179 -0.1643 -0.0303  0.0421
33815W        W65031  10.605   4.810   2.022  0.0636 -0.0418  0.1257
33816W        W65032  24.519  19.964   0.774  0.0910 -0.2831  0.0445
33817W        W65033  12.337  12.991   1.741 -0.0583 -0.1466  0.0843
33818W        W65034  20.215   4.281   0.519  0.0878 -0.1713  0.1022
33819W        W65035   1.780   0.662   7.890  0.0273  0.4147 -0.0106
33820W        W65036   7.041  10.264   9.117  0.0092 -0.0942  0.0996
33821W        W65037  27.145  21.349   0.592  0.1769  0.0927 -0.0290
33822W        W65038  11.959  21.180   2.638  0.1494 -0.3911 -0.0545
33823W        W65039  21.255   2.342   8.483 -0.1758 -0.0233  0.1557
33824W        W65040  16.141  25.078   9.069 -0.1962  0.1953 -0.0950
33825W        W65041  17.625  27.240   9.844  0.1433 -0.0694 -0.0603
33826W        W65042  11.000  20.768   1.791  0.0622  0.2095 -0.2134
33827W        W65043   1.786   1.807   1.999  0.3343 -0.0345 -0.0639
33828W        W65044  14.992  20.999   2.432 -0.1412 -0.0901 -0.0670
33829W        W65045  18.120  11.337   0.966 -0.0007  0.2472  0.1065
33830W        W65046   6.888  27.536   9.764 -0.0056 -0.3636  0.2745
33831W        W65047  14.201  22.807   1.454  0.1133 -0.1046 -0.1713
33832W        W65048  17.329  19.737   3.685  0.2827  0.2908 -0.2116
33833W        W65049   1.750  22.746   0.196  0.1017  0.0225  0.5047
33834W        W65050  24.311  19.996   3.527  0.1083 -0.1650 -0.0152
33835W        W65051  16.318   7.214   2.041 -0.0810  0.1029 -0.1714
33836W        W65052  16.832   1.557   1.240  0.0113 -0.0673  0.0230
33837W        W65053  14.493  16.041   3.051 -0.3183 -0.1152  0.0424
33838W        W65054  18.749   5.105   0.804 -0.0315  0.0297 -0.0470
33839W        W65055  22.977  12.332   2.824  0.2728  0.1391 -0.0408
33840W        W65056  27.383   0.956   1.526  0.0537 -0.0987 -0.0040
33841W        W65057  26.019   2.869   8.283  0.0786  0.0483  0.2332
33842W        W65058  27.558  17.175   1.122  0.0471  0.0948  0.4433
33843W        W65059  24.114   1.403   0.225  0.5030 -0.1441 -0.2100
33844W        W65060  25.468  23.941   2.407  0.1935  0.0039 -0.0238
33845W        W65061  13.157   8.368   1.593  0.1548  0.3212  0.0244
33846W        W65062  20.258   2.963   0.207 -0.0864  0.0700 -0.0030
33847W        W65063  10.019   4.045   0.090 -0.4046  0.0609  0.1405
33848W        W65064   7.424   3.454   2.687  0.0638 -0.0434 -0.2456
33849W        W65065  23.007   5.244   0.545 -0.2319  0.1957  0.2830
33850W        W65066  27.186  10.139  10.473 -0.2299 -0.2596  0.1326
33851W        W65067   0.685  15.370   9.499 -0.6195 -0.2384  0.2944
33852W        W65068  12.212  24.205   8.828 -0.1884  0.1820  0.1534
33853W        W65069   2.185  17.339   3.937 -0.0007  0.1217 -0.2106
33854W        W65070  14.779  15.823   9.656 -0.1469 -0.2378  0.1933
33855W        W65071   8.381   9.554   3.074  0.0312 -0.1414 -0.2825
33856W        W65072  25.872  10.936  10.477  0.0283 -0.0922 -0.1753
33857W        W65073   5.652  18.275   7.423 -0.0543 -0.1277 -0.0590
33858W        W65074  16.143  15.971   0.751 -0.1905 -0.0341 -0.0376
33859W        W65075  22.026   9.197   2.983  0.0733  0.2211  0.1343
33860W        W65076  11.182  19.878   7.426  0.1959 -0.4071 -0.0662
33861W        W65077  14.321  18.330   9.035  0.1631 -0.0656 -0.0980
33862W        W65078  21.085   4.580   2.699  0.3571  0.0608  0.1333
33863W        W65079   2.336  15.945   9.515 -0.0537 -0.0357  0.0865
33864W        W65080   8.869  21.867   1.646 -0.0369  0.1762 -0.0784
33865W        W65081  23.954   3.564  10.072  0.0807  0.1294 -0.2306
33866W        W65082   7.931  20.196   0.479 -0.0171  0.0660  0.1375
33867W        W65083  16.872  19.766   2.022  0.0580 -0.2932  0.2190
33868W        W65084  17.110  20.733  10.026  0.0068  0.0177 -0.0021
33869W        W65085   4.191  19.835   2.400 -0.1772  0.1349 -0.0364
33870W        W65086   4.310  12.497  10.280 -0.0453 -0.1651 -0.0639
33871W        W65087   5.328  15.725   3.351 -0.1464  0.1035 -0.0677
33872W        W65088  13.708  20.333   1.118  0.3026 -0.1304  0.2826
33873W        W65089  21.974  17.352   1.112 -0.0441  0.0976  0.2541
33874W        W65090  11.543  12.406   3.210 -0.1024 -0.0886  0.2205
33875W        W65091  27.122  26.179   7.836  0.0164 -0.1495 -0.0712
33876W        W65092   2.472   1.900   1.899 -0.0834  0.3028  0.3046
33877W        W65093   3.172   3.027   8.875  0.3485 -0.0780 -0.1795
33878W        W65094  13.944   6.438   8.921 -0.1264 -0.1446  0.0084
33879W        W65095  22.527  19.076   0.786  0.2610  0.1010  0.1238
33880W        W65096   8.585  13.222   2.286 -0.1371  0.1467  0.0410
33881W        W65097  26.649  17.424   0.902 -0.2051 -0.0673  0.2148
33882W        W65098  14.683   5.237   9.549  0.3365 -0.2437 -0.3022
33883W        W65099  12.120  14.806   7.829  0.0301  0.1335 -0.1364
33884W        W65100  21.806  16.504   2.479 -0.1164  0.1489 -0.1657
33885W        W65101  10.865  25.270   1.257 -0.2412 -0.2587  0.0965
33886W        W65102   9.794  13.093   0.239  0.0008 -0.1571  0.1987
33887W        W65103  20.394   5.530   0.330  0.0276 -0.1152  0.2791
33888W        W65104  10.818  15.641   3.713 -0.1287  0.0966  0.0031
33889W        W65105  14.526  20.007   8.494 -0.3983  0.1980  0.0364
33890W        W65106   8.428  16.434   7.992  0.4732  0.4048  0.0580
33891W        W65107   2.658   6.328   9.117  0.1283 -0.0548  0.0139
33892W        W65108   0.696  26.449   8.327  0.4025  0.4054  0.0176
33893W        W65109  10.007  22.088   0.542 -0.5005  0.0880  0.0027
33894W        W65110  19.384   1.647   1.463  0.1180  0.1015 -0.2124
33895W        W65111   4.797  10.401   2.230 -0.1029  0.1287  0.2276
33896W        W65112  20.217  27.034   1.092 -0.3367  0.1884  0.1728
33897W        W65113   5.462   3.503   7.659  0.3786  0.2481 -0.0853
33898W        W65114  10.991   7.867   7.859 -0.2782 -0.1587 -0.4059
33899W        W65115   6.944  23.669   1.949  0.4781 -0.1169 -0.0923
33900W        W65116  25.995  15.476   9.022 -0.2051 -0.2361  0.1650
33901W        W65117  25.632   5.863   8.439 -0.0082 -0.1596  0.1042
33902W        W65118   7.821  16.353   0.052  0.0054 -0.1388  0.1338
33903W        W65119  22.985  21.069   0.732 -0.1669  0.3005 -0.1665
33904W        W65120  20.699  16.015   1.885 -0.0278 -0.2182  0.2684
33905W        W65121  24.239   5.140   2.367 -0.0542 -0.3330 -0.5056
33906W        W65122  21.846   3.757   1.829 -0.3459  0.0315  0.0284
33907W        W65123   1.245  21.215   7.930  0.0383  0.2732  0.1656
33908W        W65124  10.569  19.292   7.641 -0.0981 -0.0953  0.2405
33909W        W65125  14.544  23.662   0.916 -0.4114  0.1456 -0.0952
33910W        W65126   3.582   8.331  10.143 -0.2989 -0.0213 -0.1384
33911W        W65127  13.056  14.823   2.805  0.0359  0.1439 -0.4320
33912W        W65128  14.886  20.697   7.644  0.1132 -0.0896 -0.2360
33913W        W65129  11.772   8.451  10.145 -0.0215 -0.0592  0.0744
33914W        W65130  17.611  17.928   9.156  0.1813  0.0003 -0.0100
33915W        W65131  20.998  21.349   1.545 -0.1345 -0.0544 -0.2658
33916W        W65132   7.017  22.914   3.006  0.0929 -0.1702  0.1197
33917W        W65133  20.311  14.754   6.853 -0.1191 -0.0854 -0.2419
33918W        W65134   7.718  23.199  10.464  0.0278 -0.0594  0.0555
33919W        W65135   9.989  10.150   1.378  0.0432  0.2150 -0.4104
33920W        W65136   0.958   9.340   9.496  0.3222  0.1631 -0.3647
33921W        W65137  18.128  23.487   1.782 -0.2747 -0.4029  0.3876
33922W        W65138  13.662   6.075   8.729 -0.0278  0.1034  0.0803
33923W        W65139  17.870  11.922   9.764 -0.1344  0.0156 -0.3335
33924W        W65140   7.614   9.650   0.372  0.0514 -0.1173  0.1298
33925W        W65141  19.041  11.377   1.527  0.1151 -0.0995  0.3607
33926W        W65142   0.278   7.843   9.317  0.1604 -0.2088  0.0806
33927W        W65143  26.122  25.917  10.479 -0.0865  0.2277  0.2026
33928W        W65144  24.743   1.103   3.852 -0.1394  0.0455 -0.3563
33929W        W65145  17.189  13.461   8.632  0.1432 -0.2853 -0.1291
33930W        W65146  12.842  16.540   8.219 -0.3499  0.1552  0.0348
33931W        W65147   8.432  15.181   9.594  0.2539  0.1456 -0.0512
33932W        W65148  11.911   3.506   9.140  0.0340  0.1369 -0.1427
33933W        W65149  18.498  12.620   8.852 -0.2373 -0.1869 -0.1173
33934W        W65150  17.378  14.902   9.851 -0.1056  0.0397  0.2802
33935W        W65151  18.392  24.741   1.750  0.3779  0.0971 -0.1379
33936W        W65152  13.569  17.456   2.532 -0.0351 -0.0265  0.3852
33937W        W65153   5.076  22.505   9.930  0.0620 -0.1954 -0.1245
33938W        W65154   1.456  12.728   7.973 -0.3100 -0.2028 -0.1889
33939W        W65155   9.820  24.703   2.635 -0.1195 -0.1883 -0.0131
33940W        W65156  11.281   8.145   3.389  0.0540 -0.1988 -0.0774
33941W        W65157   1.620  20.128   0.448 -0.0832 -0.0142  0.3154
33942W        W65158  13.088  16.825   3.534 -0.0855 -0.0445  0.1107
33943W        W65159  19.770  21.036   8.133 -0.1939  0.0904 -0.2972
33944W        W65160  24.221   2.623   4.138  0.1772  0.3570  0.2454
33945W        W65161   8.315  20.117   7.867  0.0836 -0.1612 -0.0410
33946W        W65162  18.227  16.630   2.019 -0.2009 -0.0285 -0.1146
33947W        W65163  25.128   7.199   9.109  0.1502 -0.1199 -0.0106
33948W        W65164   6.942  22.816   1.608  0.1069  0.2378  0.0208
33949W        W65165   6.558  27.408   8.911  0.1836 -0.1887  0.2796
33950W        W65166  22.619  14.473   2.709 -0.1659 -0.1286  0.3827
33951W        W65167   8.999  21.519   8.163 -0.1951  0.1118  0.0601
33952W        W65168  14.533   5.690   8.768  0.1166 -0.0117  0.1739
33953W        W65169  19.922  23.017   3.846 -0.2121 -0.0070  0.0999
33954W        W65170   9.320  15.978   0.021 -0.1134 -0.1522  0.1747
33955W        W65171  10.983  22.287   9.230  0.0723 -0.2709 -0.2254
33956W        W65172  14.800  13.296   7.850  0.2445  0.4352  0.0296
33957W        W65173  18.571  13.540   7.326  0.2487 -0.3594  0.1861
33958W        W65174  18.340   7.477   2.708  0.1727  0.0366 -0.0917
33959W        W65175   1.599  12.491   3.121  0.1668  0.1280  0.1404
33960W        W65176  18.428   1.995   8.205 -0.4417  0.2874  0.0164
33961W        W65177  19.303  15.703   8.651 -0.1375 -0.0846 -0.0239
33962W        W65178   4.820   6.832   8.154  0.1424 -0.0734  0.1260
33963W        W65179   0.642  14.363  10.092  0.1302  0.0502 -0.0910
33964W        W65180  10.904  21.848   2.983 -0.0002 -0.1301 -0.0432
33965W        W65181  21.180  17.423   0.059 -0.0293  0.0834  0.0142
33966W        W65182  25.077  16.768   1.398 -0.0725 -0.1998 -0.0458
33967W        W65183   9.757   5.168   8.010 -0.0138  0.3556  0.1362
33968W        W65184  18.713   8.403   8.774 -0.2135 -0.0990 -0.3219
33969W        W65185   5.958   8.382   1.123 -0.2168  0.1702  0.2047
33970W        W65186  25.617   2.704   9.921  0.2854  0.1095  0.3933
33971W        W65187  16.851  17.823   2.258 -0.0131  0.1259 -0.2057
33972W        W65188   2.749  18.175   2.532  0.1015  0.0112  0.0944
33973W        W65189  25.081   8.408   7.669  0.0765 -0.1635  0.1629
33974W        W65190  13.405   2.445   2.369 -0.0400  0.1332 -0.2608
33975W        W65191   9.507   9.935   9.128  0.3248 -0.3752 -0.1755
33976W        W65192   0.948  26.380   9.811 -0.0766  0.3422  0.3082
33977W        W65193  23.299   9.848   8.936  0.0542  0.0538 -0.0025
33978W        W65194   2.720   3.507   9.668 -0.0001  0.2591 -0.1873
33979W        W65195  27.578   4.670   3.384  0.1291 -0.3113 -0.0267
33980W        W65196   3.241  16.023   1.217 -0.2985 -0.1215  0.0828
33981W        W65197  19.231  19.853   9.836  0.3628  0.1067 -0.1531
33982W        W65198  14.627  16.639   7.798 -0.0888  0.3560  0.1825
33983W        W65199  24.224  21.689   8.165  0.2241  0.1273  0.1174
33984W        W65200  16.201   7.422  10.111  0.1968 -0.4712 -0.0946
33985W        W65201  17.926  21.942   3.990  0.2982  0.2674  0.3482
33986W        W65202  21.536  22.812   0.210 -0.0799 -0.1886 -0.3659
33987W        W65203   6.685  16.152   2.048 -0.1500  0.1369 -0.0959
33988W        W65204  17.808   5.432  10.348 -0.0522  0.2717 -0.0690
33989W        W65205  25.257   9.546  10.144 -0.0310 -0.1713  0.4029
33990W        W65206   0.950  23.809   0.040 -0.0252  0.1041  0.0798
33991W        W65207   6.565   5.087   2.251  0.0032 -0.1282 -0.2566
33992W        W65208  19.924   1.482   2.888 -0.0595 -0.0625  0.0034
33993W        W65209  10.789   8.439  10.179  0.2082  0.0198  0.3122
33994W        W65210  21.207  11.616   0.281  0.0478  0.0168  0.3600
33995W        W65211  24.037  16.403   2.354  0.2835  0.2309 -0.0017
33996W        W65212   4.148   0.867   3.016 -0.1980 -0.1232  0.2549
33997W        W65213  17.933  26.213   8.826  0.0037 -0.1339 -0.0924
33998W        W65214  16.310  20.387  10.519 -0.2027 -0.0868 -0.2302
33999W        W65215  15.527   2.679   2.954  0.0017  0.2922  0.0657
34000W        W65216   3.124  14.358   9.374  0.2284  0.1699 -0.0318
34001W        W65217  27.198   4.072   0.005  0.1329 -0.1115  0.0326
34002W        W65218   0.174   9.319   8.011  0.0587  0.0453 -0.0786
34003W        W65219  17.455   7.231   1.126  0.1686 -0.3145  0.0269
34004W        W65220   5.967  17.469   3.056  0.0164 -0.0336  0.2354
34005W        W65221  15.354   2.150   2.514  0.4664  0.0630  0.4931
34006W        W65222  17.708  11.586   0.717  0.1733 -0.0379  0.2722
34007W        W65223   8.192   9.455   2.428  0.2570 -0.0703  0.0394
34008W        W65224   1.507   7.035   0.500  0.0823 -0.0560 -0.5191
34009W        W65225  20.789   2.253   1.020 -0.2008 -0.0787 -0.0418
34010W        W65226   5.718  26.209   0.444  0.2748 -0.4568  0.2369
34011W        W65227  15.814   3.461   1.035  0.2205 -0.0873 -0.0403
34012W        W65228  10.802  17.692   9.736 -0.2503 -0.0359  0.4013
34013W        W65229   3.666  22.230   3.573  0.0394  0.0814  0.1798
34014W        W65230  17.045  24.783  10.122  0.0613  0.0976 -0.1297
34015W        W65231  23.954  11.465  10.372  0.0293  0.2574  0.1922
34016W        W65232  17.022  13.433   9.619 -0.0430  0.1605 -0.2467
34017W        W65233  13.190  15.470   0.482  0.1684  0.4344 -0.3995
34018W        W65234  19.324  19.389   0.546  0.2722  0.1065 -0.0822
34019W        W65235  18.958  22.490   3.051  0.2141 -0.3968 -0.1059
34020W        W65236  10.982  19.758   1.162  0.1488  0.1040  0.1095
34021W        W65237  17.118  23.977   9.064 -0.0725 -0.1544  0.0008
34022W        W65238   5.929   0.145   2.346  0.0660  0.0657  0.0363
34023W        W65239  24.454   4.887  10.073 -0.1577 -0.1189  0.2836
34024W        W65240  24.066   3.076   8.075  0.3641 -0.0320  0.0785
34025W        W65241   7.016  19.842  10.184 -0.0774  0.0364 -0.1051
34026W        W65242  27.404   6.102  10.117  0.1438  0.0800  0.1782
34027W        W65243  11.364   9.677   0.207 -0.4044 -0.2360 -0.2896
34028W        W65244   2.146  18.229   8.303 -0.0809  0.3380  0.0177
34029W        W65245  18.099   7.584   9.386  0.2373  0.1100  0.2502
34030W        W65246  22.445  12.185   2.615 -0.0087  0.1076  0.0866
34031W        W65247   0.387  17.965  10.312  0.2406  0.0221 -0.1927
34032W        W65248   4.006  11.979   9.331  0.0222 -0.0019  0.0931
34033W        W65249  24.587   3.612   0.323  0.1344  0.3909 -0.0522
34034W        W65250  13.904  20.787   8.627  0.2631  0.5072 -0.0133
34035W        W65251  17.205  21.748   9.463 -0.4877  0.0844  0.0796
34036W        W65252   9.326  19.079   9.644  0.0725 -0.0590  0.0620
34037W        W65253   4.029  16.654   3.144  0.2093  0.0807 -0.1361
34038W        W65254  12.302  15.269   1.078 -0.1111 -0.1015  0.0763
34039W        W65255  11.387   9.786   1.792  0.0372 -0.0857  0.0160
34040W        W65256  20.648  10.508   9.008  0.2375  0.0772  0.0884
34041W        W65257  23.217  15.481   2.403  0.3163 -0.1256  0.1102
34042W        W65258  15.065   5.886   8.569  0.0029 -0.2043 -0.4090
34043W        W65259   7.710  15.678   3.132 -0.0709 -0.0161  0.2400
34044W        W65260  24.792   8.994   1.231  0.0043 -0.0224 -0.2365
34045W        W65261   3.418  17.607   9.490 -0.2498  0.1282  0.0444
34046W        W65262  14.070  26.150   0.656  0.2956  0.1288 -0.0467
34047W        W65263   3.943  12.986   1.002  0.0212  0.1014  0.0062
34048W        W65264  24.911   5.943   2.216  0.1718 -0.2860 -0.0955
34049W        W65265  19.895   1.682   7.454 -0.1314 -0.0294  0.0002
34050W        W65266  23.107  27.199   8.846 -0.2049 -0.2121 -0.1042
34051W        W65267   0.106  13.429   2.307  0.2086 -0.3600 -0.1952
34052W        W65268  26.062   9.299   1.848  0.0201 -0.1832 -0.2866
34053W        W65269   2.226  20.251   1.462 -0.0474 -0.0244 -0.0654
34054W        W65270   8.338   6.791   0.515  0.0696  0.0896  0.3484
34055W        W65271  12.165  15.035   0.662 -0.4293 -0.4317 -0.0688
34056W        W65272  22.560  20.598   8.441 -0.3947 -0.2054 -0.2299
34057W        W65273   4.861   0.783   0.560  0.1922 -0.0004  0.2818
34058W        W65274  12.163   7.737   3.593  0.2144 -0.1715  0.4038
34059W        W65275  18.387   3.230   9.087  0.0956  0.2772 -0.2936
34060W        W65276  21.441  18.076   0.789  0.1670 -0.1205  0.0831
34061W        W65277   5.563  14.168   1.426  0.2050  0.0780  0.0259
34062W        W65278  11.663  11.039   7.866 -0.3112 -0.1227 -0.2608
34063W        W65279  15.865  21.799   0.530 -0.1576 -0.2660 -0.2476
34064W        W65280  10.184   2.718   0.609  0.0116 -0.1489  0.2904
34065W        W65281   1.064  21.449  10.369 -0.3813 -0.2275  0.0568
34066W        W65282  26.129   7.715   3.508 -0.0592  0.0917 -0.3281
34067W        W65283  27.125  12.070   1.584 -0.2286  0.1602  0.2043
34068W        W65284  22.961   9.827   0.952 -0.0425 -0.1186 -0.0111
34069W        W65285  16.406  12.022   9.476 -0.0540  0.0447  0.0431
34070W        W65286  23.903  17.756   9.425 -0.2326 -0.0504 -0.3217
34071W        W65287  13.895  22.501   1.978  0.0825  0.3840 -0.1694
34072W        W65288   0.619  11.561   2.530 -0.0792 -0.1559  0.1493
34073W        W65289  22.336   1.609   8.237 -0.1636  0.2032  0.1655
34074W        W65290  25.774   9.207  10.201 -0.3651  0.2004  0.1986
34075W        W65291   7.897  25.562   0.620 -0.1048  0.0083  0.1375
34076W        W65292   3.396  17.074   2.642 -0.1082 -0.1156 -0.2213
34077W        W65293   6.608  25.613   1.538  0.2494 -0.1305 -0.0324
34078W        W65294   8.041  15.721   8.361  0.2883 -0.0054  0.3207
34079W        W65295  11.987  18.138   7.821 -0.1082 -0.2134 -0.3765
34080W        W65296  15.300  18.179   3.374 -0.4505 -0.0929 -0.2568
34081W        W65297   5.243  27.462   8.042  0.1244 -0.1683 -0.1844
34082W        W65298  26.729  20.996   2.675 -0.1696  0.1188  0.0950
34083W        W65299  16.220  21.628   8.672 -0.0056  0.1142 -0.2377
34084W        W65300  12.831  14.501   0.041  0.0739 -0.1637  0.0280
34085W        W65301   8.480  25.730   7.852 -0.3460 -0.3932  0.1247
34086W        W65302  17.797   3.667   2.055 -0.1964  0.0566 -0.3242
34087W        W65303  27.137  13.282   9.258  0.0460  0.0638 -0.2948
34088W        W65304  13.272   5.666   8.485 -0.0587 -0.0853 -0.1349
34089W        W65305  20.546  25.892  10.269 -0.1595  0.1446 -0.0144
34090W        W65306   7.644  25.404   8.261  0.2347  0.1578  0.1382
34091W        W65307  27.179  21.692   3.648 -0.0944  0.0547  0.3033
34092W        W65308   0.728  26.831   2.529 -0.1538  0.4410  0.0390
34093W        W65309  19.213  16.624   3.580 -0.0419  0.1964  0.2048
34094W        W65310   0.175   9.792  10.226 -0.1972 -0.0503 -0.1956
34095W        W65311  19.961   3.441   9.939  0.2274  0.1209 -0.1566
34096W        W65312   6.211  26.324   9.162 -0.0061  0.1201  0.0114
34097W        W65313   3.996   3.766   0.949 -0.0486  0.1383  0.2457
34098W        W65314  18.732  26.414   1.547  0.1925  0.0368 -0.0603
34099W        W65315  12.292   4.654  10.148 -0.0137  0.2808  0.1008
34100W        W65316   8.537   9.580   1.547 -0.0904 -0.0267 -0.0570
34101W        W65317   1.670  21.495   2.256 -0.0885  0.2140  0.0557
34102W        W65318   0.188  11.285   8.516 -0.2924  0.2228 -0.1712
34103W        W65319  26.380  26.089   1.762 -0.1682  0.0856  0.1993
34104W        W65320  18.145  18.900   1.280 -0.4653 -0.1516  0.1211
34105W        W65321  21.121   0.510   8.946  0.1234 -0.0167  0.0329
34106W        W65322   5.683   5.105   1.202 -0.1563  0.0952 -0.0248
34107W        W65323   1.341   3.124   2.827 -0.3827 -0.0410 -0.2207
34108W        W65324  23.445   1.164   2.343 -0.1807  0.0596 -0.0441
34109W        W65325  15.187   9.471   9.512 -0.1450 -0.4472 -0.0382
34110W        W65326   3.375   3.289   2.873 -0.0478 -0.0409  0.0494
34111W        W65327  19.749   0.853  10.107 -0.0848  0.1284  0.1454
34112W        W65328  11.535  20.040   2.066  0.0896  0.0542 -0.0810
34113W        W65329   4.201  26.636  10.263 -0.0504 -0.3088 -0.1483
34114W        W65330   6.965  18.650   9.582  0.2308 -0.1916 -0.0428
34115W        W65331   8.990   3.682  10.101 -0.1910 -0.0290 -0.1837
34116W        W65332   1.654   6.295   8.820  0.2915 -0.1771  0.0300
34117W        W65333   7.090  21.953   1.555 -0.1205  0.2036  0.0117
34118W        W65334  23.068  18.950   7.821 -0.0878 -0.2886 -0.0835
34119W        W65335   0.175   7.606   9.704 -0.2459  0.0138  0.0368
34120W        W65336  18.057  18.632   2.032 -0.0832 -0.3102  0.0199
34121W        W65337  12.099   4.222   8.245  0.0083 -0.0724  0.1293
34122W        W65338  26.553  15.994   8.311 -0.2886 -0.2401 -0.0120
34123W        W65339  15.428   5.136   9.924 -0.1558  0.1629  0.1203
34124W        W65340  11.750  14.594   3.309 -0.2235  0.2204  0.0705
34125W        W65341  13.008  21.502   8.891  0.1591  0.0464  0.2648
34126W        W65342   3.226  27.572   3.255  0.0003  0.0164  0.1997
34127W        W65343  23.318  20.611   2.135  0.2150 -0.3796 -0.1859
34128W        W65344   6.050   2.689   2.254 -0.1099 -0.0908 -0.0370
34129W        W65345  11.361  10.263   3.251 -0.1666 -0.2756 -0.2884
34130W        W65346   0.687   6.494   9.169 -0.0306  0.1832  0.0058
34131W        W65347  25.168   0.439   8.290 -0.1886  0.1992  0.4242
34132W        W65348  18.060  27.445   1.796  0.0524  0.1316  0.1579
34133W        W65349  22.889  15.953   2.565  0.1000  0.1720  0.0289
34134W        W65350  14.662   2.744  10.323 -0.1685 -0.1348 -0.2029
34135W        W65351  11.283   9.518   9.162 -0.2972 -0.0265 -0.1479
34136W        W65352  12.771   9.753   8.768  0.1619 -0.0347  0.2885
34137W        W65353  16.332   2.576   1.815  0.0428  0.2115 -0.2215
34138W        W65354  15.184   9.046   3.703 -0.1041  0.3116  0.1459
34139W        W65355   5.890   3.644   1.219 -0.1058  0.1723  0.2217
34140W        W65356  27.203  17.909   2.594  0.0546  0.0104  0.2703
34141W        W65357  25.579   3.538  10.209  0.0322 -0.0539 -0.1849
34142W        W65358  16.569   9.021   0.450 -0.0555 -0.1169 -0.2063
34143W        W65359   4.380  15.757   7.513  0.1598 -0.0378 -0.2179
34144W        W65360   2.940  12.470   7.710 -0.0004  0.2196  0.2172
34145W        W65361   5.642  15.264   7.019  0.0214 -0.2036 -0.2587
34146W        W65362  13.590  12.816   2.199 -0.3988  0.0084  0.0901
34147W        W65363  15.710  12.052   8.129  0.1705  0.2075  0.0326
34148W        W65364   7.588  26.406   9.371 -0.0573 -0.1242  0.2884
34149W        W65365  21.340   3.194   8.546 -0.0346  0.1338 -0.0937
34150W        W65366   0.338   8.748   1.344  0.3324 -0.0596  0.0633
34151W        W65367  18.024   0.052   8.534 -0.0010 -0.0572  0.3168
34152W        W65368  11.435  12.629   0.127  0.0078 -0.0701 -0.0767
34153W        W65369  23.218   8.129   1.649 -0.2185  0.0766 -0.0909
34154W        W65370  13.690  23.798   2.573 -0.0589 -0.2746 -0.0237
34155W        W65371  25.622  15.568   2.652  0.2985  0.0306 -0.0078
34156W        W65372   9.890  12.001   2.422  0.0551 -0.1637 -0.1946
34157W        W65373  23.768  24.502   1.035  0.2232 -0.2669 -0.0167
34158W        W65374  22.556  21.784   1.214 -0.2829 -0.1688  0.4186
34159W        W65375  14.439  15.702   1.175 -0.3685  0.1152 -0.1490
34160W        W65376  26.612   8.253   1.322  0.1465 -0.0272  0.3386
34161W        W65377   7.496   2.883   9.577  0.2516  0.0358  0.0804
34162W        W65378   4.072  18.963   9.815  0.0987 -0.1665  0.0853
34163W        W65379   7.796  17.491   9.480  0.3690 -0.1813  0.1009
34164W        W65380   3.467  18.917   7.990  0.3012 -0.1553 -0.0626
34165W        W65381  19.668  22.686   8.958 -0.0228  0.1304 -0.1401
34166W        W65382   9.626  18.282   2.986  0.2454  0.2202  0.0313
34167W        W65383  20.232  21.984   1.479 -0.0263 -0.2903 -0.0485
34168W        W65384  22.149  18.060   2.025 -0.1157 -0.0516 -0.0287
34169W        W65385  25.252  20.277   0.372 -0.0292 -0.1521 -0.1204
34170W        W65386  13.115  25.713   3.285 -0.0601 -0.0315 -0.1397
34171W        W65387  12.901   2.040   8.280 -0.0615  0.2700 -0.0714
34172W        W65388  17.621   4.233   3.086 -0.1232 -0.1072  0.0642
34173W        W65389  16.456   6.957   0.780 -0.1648 -0.0579 -0.3095
34174W        W65390   0.350  14.440   9.606  0.2625 -0.0272  0.0628
34175W        W65391  18.385   0.597  10.167  0.0292  0.0016  0.1502
34176W        W65392  21.652  10.269   9.987  0.0906 -0.2502 -0.3049
34177W        W65393  11.613  19.705   2.440  0.2331  0.1065 -0.2063
34178W        W65394   8.755  10.056   9.056 -0.0774 -0.0140  0.2810
34179W        W65395  11.286  23.824   1.696  0.0546 -0.0143  0.0291
34180W        W65396  12.080   9.740   3.306  0.0351 -0.0455  0.0554
34181W        W65397  12.807  18.367   7.817  0.5147 -0.1548  0.1694
34182W        W65398  18.463  11.716   7.408  0.0679 -0.3683  0.2688
34183W        W65399  19.521  21.503   1.023  0.0469 -0.0964 -0.0541
34184W        W65400  22.474  23.296   8.229  0.0613 -0.0252 -0.3816
34185W        W65401  25.158   1.774   1.474 -0.1201  0.1974 -0.2304
34186W        W65402  26.433   1.361   2.030 -0.2534  0.0774 -0.2377
34187W        W65403   0.254  15.866   8.465 -0.3588  0.3073 -0.0481
34188W        W65404   6.602  26.170   9.957 -0.0370 -0.2301  0.3810
34189W        W65405  21.268  14.472  10.464 -0.4581  0.2232 -0.2243
34190W        W65406   4.172  17.510   0.979 -0.2129 -0.1502 -0.2647
34191W        W65407  17.813   2.220   0.899 -0.0512  0.1422 -0.0081
34192W        W65408  19.087  23.199   0.246 -0.0822  0.0070 -0.1221
34193W        W65409  17.790   1.295   0.977  0.1633 -0.1120 -0.1260
34194W        W65410  17.823  27.059   3.305  0.1700 -0.2338 -0.0944
34195W        W65411  13.968  25.748   2.208  0.1716 -0.0890 -0.0055
34196W        W65412   6.139   1.944   2.298  0.0256  0.0565  0.0013
34197W        W65413   0.641   0.862   1.148  0.0479 -0.2191 -0.0469
34198W        W65414  13.574   2.851   1.669 -0.0444  0.0621 -0.2150
34199W        W65415  12.363  25.577   1.416 -0.1335  0.1443  0.0895
34200W        W65416   2.472  10.361   8.888  0.0380  0.1095 -0.1190
34201W        W65417  11.366  11.774   4.024  0.1945  0.0926  0.0574
34202W        W65418  19.443  12.744   7.418  0.1217 -0.0362  0.0540
34203W        W65419  23.183   0.130   1.572  0.0162 -0.0888  0.1491
34204W        W65420   5.497  14.384   0.573  0.2290  0.1736 -0.0526
34205W        W65421   4.468   4.342   8.092 -0.4450 -0.0296 -0.3102
34206W        W65422   3.794   9.496   8.501  0.1566 -0.2590  0.0701
34207W        W65423   8.980  22.760   8.689  0.0332  0.0957 -0.4355
34208W        W65424  23.175  21.351  10.435 -0.2790  0.1170 -0.1340
34209W        W65425   1.150   4.136   9.593  0.0479  0.0327  0.0236
34210W        W65426  15.467  13.405  10.465 -0.2965  0.1994 -0.2382
34211W        W65427   8.113  12.815   8.389 -0.0831  0.1567 -0.3228
34212W        W65428  19.010  23.610   2.494 -0.1677 -0.1756 -0.2572
34213W        W65429  26.215  14.963   0.693 -0.0028 -0.2016 -0.4499
34214W        W65430  19.560   6.968   8.119 -0.2820 -0.0800 -0.1745
34215W        W65431  26.533   7.745  10.277 -0.1125  0.2416 -0.0042
34216W        W65432  11.205   3.167   9.513 -0.2680  0.2474  0.3954
34217W        W65433   7.111   5.589   2.647 -0.2029 -0.2165 -0.0360
34218W        W65434   3.062   5.194   1.216 -0.0389 -0.0234 -0.1540
34219W        W65435  16.910  17.501   8.396  0.3425 -0.1427 -0.4367
34220W        W65436  23.533  25.872   0.444  0.1969  0.1427  0.4417
34221W        W65437   1.344  18.005   8.186 -0.0182 -0.0671  0.2330
34222W        W65438  14.143  15.701   0.272 -0.1692  0.1234 -0.2053
34223W        W65439  20.470  25.195   3.696  0.0800 -0.2280 -0.0236
34224W        W65440  10.739  12.329   2.155  0.0402  0.0595  0.2165
34225W        W65441  10.873  14.677   3.063  0.2178 -0.1173  0.1651
34226W        W65442   3.879   2.038   9.362 -0.0814  0.0004  0.0073
34227W        W65443  26.877   3.046   3.436  0.0430  0.0517  0.1941
34228W        W65444   5.731  26.347   8.816  0.0911  0.1490  0.2210
34229W        W65445  19.244  24.255   1.279  0.1486 -0.1089 -0.3627
34230W        W65446  13.087  20.041   1.391  0.0226 -0.0330 -0.0983
34231W        W65447  23.227  15.067   0.067 -0.2010  0.2968 -0.0817
34232W        W65448  15.632  17.958   0.502  0.0401 -0.1410 -0.1551
34233W        W65449  19.730   5.705   8.384  0.1479  0.1804 -0.0727
34234W        W65450   0.004  21.392   0.863 -0.2211 -0.1985  0.3075
34235W        W65451   5.327  14.548   1.088 -0.0134 -0.0882  0.0379
34236W        W65452   6.446  18.740   1.330  0.0379  0.1447  0.3809
34237W        W65453  10.422   5.616   7.715  0.0770 -0.1950 -0.1611
34238W        W65454  15.388   5.564   2.003  0.2338 -0.0697  0.0583
34239W        W65455  17.613   2.830   1.523  0.0769  0.0249 -0.2028
34240W        W65456  26.801  13.629   1.255  0.0901  0.4466  0.2963
34241W        W65457   2.182   5.660   8.372  0.1242 -0.1666  0.1341
34242W        W65458  16.671  24.503   8.369  0.2655  0.1995 -0.0540
34243W        W65459   7.510   1.735   8.319 -0.0765 -0.1506  0.1775
34244W        W65460  26.125   0.615   2.730 -0.1280 -0.0070  0.0349
34245W        W65461  18.824   9.339   8.367  0.0717 -0.0310  0.4861
34246W        W65462  17.841   5.237   8.299  0.0283  0.1103 -0.2557
34247W        W65463  18.328   5.564  10.467 -0.1888  0.0126  0.0231
34248W        W65464  15.697   7.632   7.108  0.1648  0.1183 -0.2592
34249W        W65465   0.891  22.352   2.363 -0.1476 -0.2489 -0.1253
34250W        W65466  11.458  11.271   2.140  0.1721 -0.0654 -0.0226
34251W        W65467   8.389  16.399   0.200  0.1033 -0.0093 -0.1008
34252W        W65468  20.267   4.011   7.795 -0.0011  0.1247 -0.0346
34253W        W65469   7.929  24.497   9.206  0.4574 -0.0960 -0.1592
34254W        W65470   1.748   9.513   2.306 -0.2455  0.1252  0.0770
34255W        W65471  10.512  20.746   7.877 -0.2067  0.1764 -0.0068
34256W        W65472   1.780  21.462   8.231  0.0477 -0.0102 -0.0403
34257W        W65473  25.062  13.314   3.369 -0.1763  0.0885 -0.1356
34258W        W65474   6.382  16.076   8.454 -0.0406 -0.0892  0.1611
34259W        W65475  18.439   7.241   9.858 -0.2474  0.1073 -0.1898
34260W        W65476  26.013  27.017   2.349 -0.0951  0.1275  0.0914
34261W        W65477  24.698  22.554   7.760  0.0869 -0.0405  0.0205
34262W        W65478   3.007   7.721   0.001  0.0457  0.1717 -0.2440
34263W        W65479   0.037   0.931   1.979 -0.1723 -0.0734  0.1126
34264W        W65480   0.664  17.680  10.042 -0.4139 -0.1218 -0.1158
34265W        W65481  24.549   0.540   3.626 -0.0600  0.0085 -0.4063
34266W        W65482   5.184  26.061   2.883  0.2168  0.0538  0.2460
34267W        W65483  10.010  22.589   0.788  0.1093  0.1002 -0.3304
34268W        W65484  10.111  13.513   9.726  0.3045 -0.0861  0.0688
34269W        W65485   6.503  17.792   7.845 -0.0316 -0.0522 -0.1402
34270W        W65486  19.524  11.455   0.391  0.2594 -0.1882  0.0452
34271W        W65487  23.517  15.494   9.704  0.2101  0.1455 -0.0116
34272W        W65488   4.587   5.916   8.023  0.2900 -0.2975 -0.0409
34273W        W65489  23.287  11.194  10.324  0.1095 -0.0763 -0.1186
34274W        W65490   8.519  14.795   8.181 -0.0019  0.1098 -0.0685
34275W        W65491  17.473   9.429   0.541  0.6072 -0.0574  0.1090
34276W        W65492  11.030  24.701  10.224 -0.0730 -0.1491 -0.1269
34277W        W65493  26.479   9.957   1.326  0.0300  0.1020 -0.1939
34278W        W65494   2.970   6.402   2.667 -0.0287 -0.3144  0.0783
34279W        W65495   8.597  16.726   2.348  0.1351 -0.0774  0.1000
34280W        W65496  14.947  24.435   1.163 -0.2670  0.2214 -0.0497
34281W        W65497  12.867  16.795  10.245  0.2853  0.1471 -0.2713
34282W        W65498  27.613   2.974   9.616 -0.2594 -0.0587 -0.1642
34283W        W65499   9.373  11.509   0.458 -0.2517  0.0873  0.2083
34284W        W65500  10.602  26.782   1.144  0.1641 -0.3535 -0.0909
34285W        W65501  21.554  12.187   2.992  0.0088  0.1384 -0.1165
34286W        W65502  18.367   6.584   7.403  0.0229  0.1356 -0.2718
34287W        W65503  13.863  19.098   9.357 -0.2793  0.2083  0.2581
34288W        W65504  13.311   3.948   0.375 -0.1261 -0.0163 -0.0256
34289W        W65505   4.997   7.400   9.277  0.1110  0.3227 -0.1921
34290W        W65506   4.931  25.801   8.204 -0.5088  0.0604  0.1214
34291W        W65507   0.945  16.907   2.990 -0.4089 -0.1666 -0.2735
34292W        W65508   4.422   8.338   1.017 -0.1997  0.2854  0.2436
34293W        W65509  21.723  17.816   9.740 -0.0925 -0.1704 -0.1590
34294W        W65510   5.807  17.234   7.578 -0.2476 -0.1785 -0.0667
34295W        W65511   9.235   4.020   9.166  0.0321 -0.0521 -0.0324
34296W        W65512   9.859  24.126   8.502 -0.0614 -0.0820  0.1296
34297W        W65513  25.949  16.555  10.422  0.0772  0.1786 -0.0317
34298W        W65514  21.808  22.694   8.412 -0.1207 -0.2935 -0.0044
34299W        W65515  19.039   3.542   0.435  0.0422  0.0702  0.1596
34300W        W65516   8.992  25.515   7.609  0.1755  0.0742 -0.0085
34301W        W65517  16.346  21.463   0.755 -0.4681  0.0601  0.0575
34302W        W65518   5.136  13.384   2.760 -0.1871  0.1917 -0.1525
34303W        W65519  12.217   5.489   9.980 -0.0330 -0.0858 -0.2887
34304W        W65520  25.754  17.068   1.512 -0.0601 -0.1479  0.2043
34305W        W65521  20.931  10.504   2.068  0.0848  0.0407 -0.1193
34306W        W65522  16.890  10.297   1.342 -0.1454  0.1295 -0.2345
34307W        W65523  16.894  20.491   1.274 -0.1188  0.0244  0.1786
34308W        W65524   2.167   5.138   9.786 -0.0291  0.2245  0.1856
34309W        W65525   0.627   2.780   8.961 -0.2383 -0.1296  0.1372
34310W        W65526   7.833  17.706   0.349 -0.1233 -0.1595 -0.2516
34311W        W65527   1.135  17.212   2.163 -0.1039  0.1498 -0.3463
34312W        W65528  14.423  14.705   9.563 -0.1268  0.0465 -0.0710
34313W        W65529  14.228   4.758   8.171  0.4787  0.1741 -0.0449
34314W        W65530  25.656  14.667   1.575 -0.0990 -0.1854  0.1750
34315W        W65531  22.599   6.039   2.813  0.0371  0.0768 -0.3244
34316W        W65532   3.144  13.011   8.866  0.0928 -0.1097 -0.1157
34317W        W65533  10.906  21.894   2.481 -0.0310 -0.0014  0.1706
34318W        W65534  26.485  25.053   1.666  0.1084  0.2856  0.1068
34319W        W65535  16.973  20.833   0.543 -0.3855  0.0249  0.3661
34320W        W65536  18.280   4.817   0.898 -0.3374 -0.0636  0.3122
34321W        W65537  16.890   9.943   9.379  0.0999  0.0426  0.3987
34322W        W65538  25.819  12.165   0.937 -0.1034 -0.2196  0.1614
34323W        W65539  20.392  23.586  10.227 -0.0615 -0.2002  0.0694
34324W        W65540  23.632   6.757   0.155  0.0636  0.2501  0.0324
34325W        W65541  12.687  20.161   7.401 -0.2316 -0.2152  0.0565
34326W        W65542  13.054  18.994   8.287 -0.0330  0.2958 -0.2948
34327W        W65543  17.421  20.820   8.051  0.2412 -0.0691 -0.0258
34328W        W65544  13.661  14.587   0.563 -0.0894  0.1053  0.0310
34329W        W65545  22.701  18.991   9.617  0.1772  0.2790  0.1126
34330W        W65546   3.921  10.333   9.943  0.2089  0.0262 -0.3144
34331W        W65547  25.423  13.763  10.543  0.1030  0.2351 -0.2369
34332W        W65548  13.056  20.576   2.355  0.1996 -0.1082 -0.2885
34333W        W65549  21.386  23.539   9.441  0.3861  0.0552  0.1680
34334W        W65550  23.678  13.674   8.074 -0.3035 -0.0948 -0.2630
34335W        W65551   7.085  16.599   0.319 -0.3033 -0.3003 -0.1527
34336W        W65552   2.959   5.659   0.273  0.1714 -0.1550 -0.0451
34337W        W65553  12.010  13.304   9.480  0.2758  0.0533  0.1167
34338W        W65554   6.578  14.038   7.671  0.0816  0.0924  0.0912
34339W        W65555   8.076  16.494   9.206  0.0604 -0.1460 -0.0423
34340W        W65556  21.922   1.460  10.472 -0.1878 -0.2668 -0.0793
34341W        W65557  17.774  23.867   3.786 -0.1319 -0.2033  0.0099
34342W        W65558  17.590  24.619   2.748 -0.4157 -0.1563 -0.1993
34343W        W65559  22.606  19.196   8.778 -0.1504 -0.2451  0.1155
34344W        W65560   5.600  14.653  10.175  0.0150 -0.1686  0.0448
34345W        W65561   7.631  14.766   8.159 -0.1772  0.3759 -0.0482
34346W        W65562   0.220   3.116   1.357  0.4034  0.1508  0.0154
34347W        W65563   4.028  22.651   8.687 -0.0490 -0.5641  0.2707
34348W        W65564  19.353  20.538   0.608  0.3153  0.0522  0.4778
34349W        W65565   7.661  10.828   1.395  0.1309  0.1722 -0.3226
34350W        W65566  11.667   6.140   2.517 -0.2899 -0.2585 -0.1430
34351W        W65567   7.880  23.332   0.826 -0.2987 -0.0638  0.0323
34352W        W65568  18.319  17.388   3.657  0.1104 -0.4578  0.1093
34353W        W65569   6.464  26.178   2.488  0.1167  0.2668 -0.0731
34354W        W65570  27.559  17.952   8.183 -0.0345  0.0502  0.0015
34355W        W65571  26.973  25.910   8.618 -0.0611  0.1126  0.1059
34356W        W65572   7.929   8.774   0.579  0.0241  0.4177 -0.1798
34357W        W65573  24.689  16.561   0.644 -0.2216  0.0875 -0.2303
34358W        W65574  20.673  25.213   2.528  0.1536  0.3864  0.1007
34359W        W65575  17.212   4.542   7.823 -0.2352  0.0866 -0.1687
34360W        W65576  13.711   6.972   7.820  0.1663  0.0117  0.1516
34361W        W65577   9.878   3.808   1.350  0.0888  0.0883 -0.4585
34362W        W65578   7.695   7.891   0.110  0.1077  0.2118 -0.2493
34363W        W65579   8.636  15.480   1.291 -0.0398  0.0900 -0.1689
34364W        W65580  23.632  18.725   1.071 -0.1643  0.1551 -0.2876
34365W        W65581   6.014  12.247   7.137 -0.0000 -0.3553  0.0136
34366W        W65582  23.729   7.227   1.917  0.0721  0.1596  0.0371
34367W        W65583   1.414  10.422   8.038 -0.3095 -0.1954  0.2022
34368W        W65584   2.398  16.430   9.359 -0.1653  0.3707  0.0396
34369W        W65585  17.890   0.007   3.189  0.3496 -0.5347  0.0960
34370W        W65586  12.271  23.768   8.510  0.0677 -0.2271 -0.0908
34371W        W65587  17.082  21.879   1.999  0.0867 -0.0787 -0.0874
34372W        W65588   1.897  17.827   9.694  0.1782 -0.1785 -0.0226
34373W        W65589  21.351  16.570   0.961 -0.0215  0.3070  0.1282
34374W        W65590  13.106   2.862   0.322 -0.5096  0.2842  0.1054
34375W        W65591  20.243  15.996   9.254 -0.2636 -0.0548 -0.1017
34376W        W65592   5.597  19.961   2.168  0.1195  0.4386 -0.0812
34377W        W65593  17.530   7.741   7.343 -0.2186 -0.4836 -0.4699
34378W        W65594   6.919  22.856  10.510  0.0669  0.1667 -0.1514
34379W        W65595  21.438  19.571   0.120 -0.0232 -0.0532  0.2899
34380W        W65596   1.250  18.793   1.653 -0.0939 -0.2492 -0.0688
34381W        W65597   0.577   2.067   1.743 -0.1387 -0.1888 -0.2549
34382W        W65598  24.861  24.832   1.720 -0.1705  0.1622 -0.0725
34383W        W65599  15.330   3.471   3.247 -0.1375 -0.1221  0.1522
34384W        W65600  15.105  18.443   2.200  0.0746  0.1595  0.3742
34385W        W65601  18.940   5.624   3.007  0.0841  0.2087 -0.3160
34386W        W65602   5.730  22.320   1.748 -0.5077 -0.0873 -0.1566
34387W        W65603  12.509  19.490   1.965 -0.0266 -0.0146  0.0017
34388W        W65604  19.621   2.409   0.130  0.1924 -0.0314  0.0995
34389W        W65605  16.011   8.005   3.368  0.1357  0.0262 -0.3724
34390W        W65606   2.415  15.936   2.340  0.0429  0.0005  0.0511
34391W        W65607  12.352  10.922   1.904  0.0437  0.1085  0.4388
34392W        W65608   7.262  23.151   1.425 -0.1663 -0.0759 -0.0332
34393W        W65609   3.345   1.395   8.361  0.1901  0.2335 -0.2359
34394W        W65610  26.300  19.328   1.490 -0.0675  0.2821  0.1956
34395W        W65611  26.658  10.710   8.370  0.1801 -0.1262 -0.1415
34396W        W65612   2.131   0.895   3.773 -0.0191  0.2074 -0.0212
34397W        W65613  26.585  16.419   9.665 -0.1861 -0.0150 -0.0767
34398W        W65614   6.380  13.706   1.921 -0.1856  0.1977  0.0765
34399W        W65615  23.572  23.921   9.501  0.0434  0.0985  0.0268
34400W        W65616  14.766  14.403   7.671  0.1503  0.3351 -0.1793
34401W        W65617   7.730   9.852   8.837 -0.4366  0.0497 -0.2133
34402W        W65618  21.997   1.809   2.900  0.0331 -0.3067  0.1548
34403W        W65619  23.334  16.984   1.331  0.0878 -0.2096  0.1862
34404W        W65620   2.071   0.045   8.930 -0.0873  0.1577  0.0956
34405W        W65621  25.423  11.109  10.486  0.0118  0.1233 -0.0201
34406W        W65622  24.257  19.487   1.427  0.2804  0.1312 -0.3032
34407W        W65623   3.833  11.887   8.132  0.2975  0.2176  0.0178
34408W        W65624  21.713  21.421   2.674 -0.0297 -0.0502 -0.0422
34409W        W65625   4.670  12.335   9.444 -0.4689 -0.2993  0.3259
34410W        W65626  18.609  19.504   2.436 -0.0052  0.3232  0.1195
34411W        W65627  27.502  12.682   0.196  0.2576 -0.0448 -0.0410
34412W        W65628  20.880  27.113   8.730 -0.2636 -0.1452 -0.0540
34413W        W65629  13.969  19.992   2.004  0.1895  0.0832 -0.0573
34414W        W65630   6.791  10.465   1.839 -0.0888 -0.0983 -0.0567
34415W        W65631  11.871   0.982   0.529  0.1381  0.3608  0.2350
34416W        W65632  26.077  15.960   9.294 -0.0949  0.0661 -0.0376
34417W        W65633   7.511  20.967   0.791  0.1000 -0.2075 -0.2238
34418W        W65634  25.324  21.085   7.825 -0.0753  0.3234 -0.1054
34419W        W65635  13.412  26.127   2.578  0.1593 -0.2771  0.2053
34420W        W65636  15.851   5.502  10.482 -0.2458  0.1305  0.4080
34421W        W65637   8.466  25.777  10.051 -0.2762 -0.0734 -0.0220
34422W        W65638  16.975   4.375   9.844 -0.2111 -0.5525  0.1344
34423W        W65639   0.720  16.996   0.482 -0.3617 -0.0890  0.1416
34424W        W65640  11.413  23.034   8.851  0.2074  0.0559  0.0955
34425W        W65641  17.220  18.929   3.309 -0.1716  0.2004  0.0363
34426W        W65642   4.562   3.911   0.700 -0.2330  0.1428 -0.1635
34427W        W65643  15.478  13.712   0.848 -0.1040 -0.0190  0.0557
34428W        W65644  15.235   6.583   1.121  0.2798 -0.4177 -0.2046
34429W        W65645   7.035  25.327   8.956 -0.2874 -0.0166  0.0985
34430W        W65646   4.644   0.751   2.218  0.0649  0.1871  0.0613
34431W        W65647   9.305   6.784   3.134  0.3036  0.0326 -0.0217
34432W        W65648  14.654  14.561   9.116 -0.4415 -0.1974 -0.1100
34433W        W65649  17.257  15.226   2.818 -0.0040  0.0274  0.1466
34434W        W65650  10.072  12.128   1.164  0.0880 -0.1753  0.2481
34435W        W65651  11.148  26.115   0.860  0.0924 -0.0810  0.0552
34436W        W65652  22.880  18.763   2.077  0.4021 -0.2300 -0.1535
34437W        W65653  14.235  14.040   9.108 -0.0057  0.2867 -0.1409
34438W        W65654  11.899   1.481   9.797 -0.1284  0.0276  0.0136
34439W        W65655  11.476  23.319  10.254 -0.4048  0.0121 -0.1851
34440W        W65656   9.834  24.661   9.416 -0.0294  0.3738 -0.1681
34441W        W65657   2.257  13.430   9.329  0.0600  0.1153 -0.0303
34442W        W65658  21.839  10.907  10.467  0.1107 -0.1355 -0.1748
34443W        W65659  16.798  18.528   1.550  0.0064  0.1842 -0.1116
34444W        W65660  15.354   7.880   0.692  0.4216 -0.3673  0.2249
34445W        W65661  17.094   8.406   9.932  0.1579 -0.1563  0.3582
34446W        W65662  26.792   5.623   1.104 -0.2582 -0.3148 -0.0209
34447W        W65663  24.049   1.560   3.459 -0.0822 -0.2069  0.3405
34448W        W65664  21.392  17.277   1.775  0.2246 -0.2671 -0.0082
34449W        W65665   5.870  24.582   8.052  0.0528  0.0802  0.1162
34450W        W65666  16.771  23.805   8.719 -0.0089 -0.1081  0.0218
34451W        W65667  19.473  11.531   9.058  0.0624 -0.1462 -0.0953
34452W        W65668  20.668  21.847   2.919  0.0314 -0.0551  0.0069
34453W        W65669  10.840   6.983   9.594  0.3461 -0.2154 -0.2505
34454W        W65670  11.430  20.310   1.603  0.0904 -0.0860 -0.1882
34455W        W65671  19.060  24.507   0.222  0.3321  0.0688  0.2042
34456W        W65672  10.916   0.172   1.399 -0.3021 -0.0831  0.0276
34457W        W65673  17.502  11.244   8.222  0.3120  0.1880  0.0772
34458W        W65674   6.465  23.524   1.242  0.0814  0.0881  0.2346
34459W        W65675   2.637   5.889   8.150  0.1171  0.0798 -0.4562
34460W        W65676  20.546  25.939   1.656 -0.2608 -0.0528  0.1425
34461W        W65677   4.486  27.286   0.431  0.0218 -0.1059  0.0169
34462W        W65678  11.459   2.371   9.803 -0.0295  0.1077 -0.0611
34463W        W65679  12.147  20.778   0.436 -0.0014  0.0527  0.2816
34464W        W65680  26.509  26.323   0.006  0.1141  0.1722  0.2817
34465W        W65681  25.004   4.514   2.170 -0.0537 -0.1263 -0.0121
34466W        W65682   8.133  15.464   1.659  0.1795 -0.0447  0.2764
34467W        W65683  10.099  11.932   8.213 -0.1380  0.1015 -0.0435
34468W        W65684   5.279   0.419   0.408 -0.1384 -0.0600 -0.0388
34469W        W65685   7.738  27.527   8.171 -0.1489  0.1605  0.1531
34470W        W65686   0.183  22.984   1.133  0.1678 -0.1729 -0.1771
34471W        W65687  20.420   2.896   2.399 -0.1494  0.3000  0.0794
34472W        W65688  22.623   3.896   8.992 -0.0741  0.6226  0.1807
34473W        W65689  27.543  24.610   3.051  0.0784 -0.0635  0.0690
34474W        W65690   8.830  23.537   1.335 -0.1210 -0.2356 -0.3290
34475W        W65691  12.135   3.498   1.859 -0.0437  0.0180 -0.2088
34476W        W65692  10.783  26.472   8.158  0.2465  0.0920 -0.2731
34477W        W65693   7.729  27.220   2.988  0.0440  0.0835 -0.1554
34478W        W65694  10.868   0.738   1.745 -0.1137 -0.1199  0.1353
34479W        W65695   9.865  14.945   0.124  0.1790  0.1700  0.2250
34480W        W65696   7.798  19.602  10.417 -0.2631  0.0437  0.0922
34481W        W65697  13.344  21.135   8.759 -0.3098  0.1560  0.0809
34482W        W65698  18.688  13.807   2.340 -0.1240  0.1645 -0.0670
34483W        W65699  11.020  16.786   1.877 -0.1479 -0.0143  0.3235
34484W        W65700  19.913  26.638   1.688 -0.0550 -0.3793  0.2116
34485W        W65701  27.456   6.548   0.987  0.1666 -0.3023 -0.0551
34486W        W65702  16.506  23.868   9.700  0.4529 -0.1191 -0.5911
34487W        W65703  12.189  14.953   3.595 -0.2192  0.0259 -0.1248
34488W        W65704  19.884  23.708  10.342  0.0819  0.1157  0.1097
34489W        W65705  15.080  10.048   2.481  0.2708  0.4324  0.1646
34490W        W65706  13.448  26.348   0.089 -0.1296 -0.0985  0.0439
34491W        W65707   8.555   1.188   8.062 -0.1021 -0.2197 -0.0938
34492W        W65708  13.469  25.476   4.031 -0.2455  0.2201  0.1098
34493W        W65709  23.178   3.364   0.678 -0.0946 -0.0712 -0.1127
34494W        W65710   6.209  16.897   7.991 -0.1052 -0.2153  0.0513
34495W        W65711  25.424  15.413   0.186 -0.1187  0.3229 -0.0250
34496W        W65712   5.694  14.742   8.546  0.0111  0.2009 -0.1630
34497W        W65713  25.211   9.483   2.801  0.3645  0.2717 -0.0129
34498W        W65714  16.123  16.831   1.600  0.0366  0.1248 -0.2817
34499W        W65715  26.297  13.702   3.133  0.2709  0.0937 -0.0932
34500W        W65716   9.491   0.969   8.763  0.1621 -0.1354  0.0745
34501W        W65717   1.311  25.816   1.334  0.0578  0.2025  0.0676
34502W        W65718   8.247  17.929   1.178 -0.1066  0.1286 -0.4313
34503W        W65719   0.089  20.840   2.558 -0.0779 -0.1934 -0.0701
34504W        W65720   2.423  25.752   9.481  0.2012  0.1197 -0.2801
34505W        W65721  10.048  14.566   8.119  0.0896 -0.0949 -0.0495
34506W        W65722  10.425  26.278   0.238 -0.0001  0.1378  0.1220
34507W        W65723   2.060   2.276   1.417  0.1417 -0.1624  0.1793
34508W        W65724   0.995  15.968   2.011 -0.2827  0.0380 -0.0281
34509W        W65725   0.138  19.276   0.964  0.0676  0.0686 -0.0465
34510W        W65726   4.075  20.952   3.399  0.0788 -0.1892 -0.2711
34511W        W65727  22.732   6.963   1.611  0.2555 -0.2386 -0.1265
34512W        W65728   0.078  12.018   3.268 -0.1449 -0.2911  0.1975
34513W        W65729  26.143  26.322   7.794 -0.3317  0.0666 -0.1705
34514W        W65730  19.477   9.560   2.034  0.1570  0.1777 -0.0028
34515W        W65731  16.523   7.312   8.108 -0.0476 -0.2226  0.5698
34516W        W65732  24.098   6.172   2.423 -0.0240  0.0294  0.1259
34517W        W65733  26.481   3.829   2.145 -0.0874  0.0142  0.0820
34518W        W65734   0.894  21.551   9.108  0.2616 -0.0157 -0.1909
34519W        W65735  19.752   5.948   9.775  0.1531 -0.0910 -0.2445
34520W        W65736   1.512   6.262   9.355 -0.0819  0.1185 -0.0194
34521W        W65737  25.365  11.393   1.164 -0.0474 -0.2958  0.1453
34522W        W65738  15.101   6.247   2.534  0.0942 -0.0369  0.0411
34523W        W65739   0.531  23.562  10.401 -0.1096 -0.0832 -0.3894
34524W        W65740  15.476  13.972   3.208 -0.0075  0.3201 -0.0435
34525W        W65741  10.226   5.831   3.374 -0.0297 -0.1341 -0.0231
34526W        W65742   0.841   4.400   3.212  0.2903  0.1698 -0.0988
34527W        W65743  15.492  12.502   8.174  0.1939 -0.0739  0.1612
34528W        W65744  19.359  14.213   0.089  0.1133 -0.1270 -0.0785
34529W        W65745   1.126  22.680   8.350  0.0990  0.0628  0.1901
34530W        W65746  25.187  13.735   8.954  0.1271  0.1329  0.2972
34531W        W65747   9.775  23.734   3.856 -0.2952 -0.1186 -0.0939
34532W        W65748  11.649  20.289   7.652  0.2429  0.0670 -0.0812
34533W        W65749  18.672   1.465   2.943 -0.1335  0.2707 -0.0498
34534W        W65750  26.206   4.492   8.705  0.1579 -0.1484 -0.1950
34535W        W65751  24.010  19.122   8.122 -0.3620 -0.1261  0.1372
34536W        W65752  24.752  12.353  10.375 -0.2081 -0.0934  0.0259
34537W        W65753   7.011  25.693   3.292 -0.2310 -0.3332 -0.2327
34538W        W65754   0.885  20.760   1.917  0.1150 -0.0374  0.0370
34539W        W65755  27.070  15.095   9.918  0.0849  0.0409 -0.0497
34540W        W65756   9.128  26.507  10.102  0.0268 -0.2392  0.0251
34541W        W65757   8.568  16.813   9.008  0.2119  0.0399  0.0552
34542W        W65758  23.328  15.240   8.683 -0.0491 -0.0968  0.0659
34543W        W65759  21.804  27.246   8.695 -0.0269 -0.1309 -0.1426
34544W        W65760  22.879  12.722   1.948 -0.0493 -0.0105  0.0733
34545W        W65761  15.559   1.552  10.207 -0.0777  0.1226 -0.1461
34546W        W65762  23.422   6.233   1.656 -0.0389  0.0363 -0.2399
34547W        W65763  24.732  15.617   0.795 -0.2688  0.2618  0.2659
34548W        W65764   3.475  20.339   1.681 -0.0562 -0.1545 -0.3253
34549W        W65765   4.402   2.343   7.452  0.1183  0.1039 -0.1384
34550W        W65766   8.985   3.295   9.723  0.2651 -0.0330 -0.4226
34551W        W65767   5.206   5.164   1.037 -0.2254  0.0829 -0.1033
34552W        W65768   6.469  20.087   8.829 -0.1715 -0.0625 -0.0387
34553W        W65769  11.384  15.197   8.398 -0.3008 -0.0402 -0.0452
34554W        W65770  22.977  12.931  10.331  0.2166 -0.1848 -0.0434
34555W        W65771  21.464  13.767   2.425 -0.1032 -0.0088  0.1219
34556W        W65772  20.609  21.632   3.351  0.0126  0.1110 -0.0819
34557W        W65773  13.725  27.445   4.663  0.3929  0.1223  0.0006
34558W        W65774  22.220  19.623   7.785 -0.2356  0.0527 -0.1250
34559W        W65775  11.392   4.098   1.157 -0.1546  0.2034  0.1741
34560W        W65776   0.580   6.629   3.053 -0.1205  0.1392  0.0438
34561W        W65777  26.002  26.548   9.109  0.0225  0.1740 -0.1601
34562W        W65778   4.097  26.153   9.696 -0.0629 -0.1756  0.2443
34563W        W65779  14.827  13.518   8.647  0.0544  0.1147  0.1022
34564W        W65780  26.800   0.031   7.587 -0.3151 -0.2262  0.1251
34565W        W65781  25.003  25.930  10.027  0.0131  0.2812 -0.0892
34566W        W65782  15.962   8.630   8.976  0.1816  0.0760 -0.1579
34567W        W65783  23.052  22.143   0.650 -0.0387 -0.2435  0.3929
34568W        W65784  14.669   8.603   7.563  0.0718 -0.3047 -0.1535
34569W        W65785   8.152  20.165   9.996  0.2516  0.2586  0.0571
34570W        W65786   1.894   5.650   0.462  0.0353  0.2006 -0.0138
34571W        W65787  19.036   9.730  10.190  0.1729 -0.0726 -0.0344
34572W        W65788  22.608  23.687   3.038  0.1135 -0.3278  0.1870
34573W        W65789  22.362  24.673   1.144 -0.0671 -0.2031 -0.1730
34574W        W65790  19.816  18.273   2.210  0.1061 -0.2822  0.0288
34575W        W65791  17.184   8.018   7.674  0.2667 -0.0856 -0.2382
34576W        W65792   6.169  11.405   1.235 -0.2399 -0.1114  0.2087
34577W        W65793  21.577   0.897   3.096  0.0433  0.3793  0.0315
34578W        W65794   7.093  24.073  10.280  0.2475  0.1911  0.2082
34579W        W65795   0.810  14.651   9.718  0.1644  0.2802  0.2896
34580W        W65796  24.407   9.766   0.065  0.0002 -0.1056 -0.1794
34581W        W65797  27.350  15.485   9.807 -0.1889 -0.2212  0.1107
34582W        W65798   6.824  17.606   0.975  0.3023  0.2610 -0.1165
34583W        W65799   6.652  21.094   1.242  0.3743 -0.2964 -0.1341
34584W        W65800  23.821  19.405   0.596 -0.1581  0.3349 -0.1904
34585W        W65801  11.684  22.282   0.449  0.1481 -0.1223 -0.1693
34586W        W65802  10.873   8.218   0.979 -0.0697 -0.1576 -0.2268
34587W        W65803   6.733   6.572   5.082 -0.2684  0.0890 -0.2527
34588W        W65804   2.286   5.257  10.231 -0.2445 -0.0787  0.0604
34589W        W65805  16.942  25.601   9.372  0.1033  0.0808  0.2880
34590W        W65806  22.704   0.697   0.041 -0.4309 -0.1237  0.1279
34591W        W65807   8.059   9.104   3.002 -0.0242 -0.4022 -0.1037
34592W        W65808   7.217   8.104   9.460 -0.3258  0.0350  0.0968
34593W        W65809  19.512  26.661   0.206  0.1582 -0.3201  0.0737
34594W        W65810   5.666   5.667   8.290 -0.0449 -0.1122  0.1807
34595W        W65811  25.115  12.442   2.101 -0.1835  0.0026  0.0118
34596W        W65812  24.739   9.383   8.213 -0.2040  0.0716  0.0963
34597W        W65813  21.068  15.124   8.873 -0.1989  0.0388  0.1238
34598W        W65814  13.040  16.864   1.050 -0.0782 -0.0131  0.1506
34599W        W65815  13.947  21.792   8.354 -0.0813  0.0351  0.0198
34600W        W65816  13.744  22.841   2.331 -0.1000  0.0854 -0.0328
34601W        W65817  22.419  11.539  10.296 -0.2779  0.2072 -0.0400
34602W        W65818   1.052  24.796  10.449 -0.0738  0.4416  0.0376
34603W        W65819  11.491  24.251   2.343 -0.0702  0.0788  0.0784
34604W        W65820  19.636  16.092   2.704  0.0312 -0.2638  0.1286
34605W        W65821   2.194  15.538   1.682 -0.0527 -0.2746 -0.0285
34606W        W65822  11.071  20.062   0.207  0.1593 -0.3139  0.0759
34607W        W65823  15.365  19.770   8.732  0.0628  0.1012 -0.4388
34608W        W65824  14.174  26.743   2.458 -0.2908  0.1357 -0.0361
34609W        W65825   0.608  10.772   9.145 -0.0563  0.1751 -0.1010
34610W        W65826  22.263   0.394   0.757  0.3177 -0.1904  0.1044
34611W        W65827  26.267   7.647   9.844 -0.2860 -0.1325 -0.0676
34612W        W65828  22.347   3.354   2.315 -0.1187 -0.2554 -0.4095
34613W        W65829  13.573  27.614   1.854  0.1845 -0.0872  0.0021
34614W        W65830   2.619  10.137   9.452  0.0044 -0.1191 -0.1786
34615W        W65831  16.972  14.496   1.780  0.0420  0.0801 -0.1533
34616W        W65832   0.777  27.102   2.032  0.0935  0.1713 -0.1651
34617W        W65833  16.260   8.119   1.193 -0.0728  0.1334 -0.1922
34618W        W65834  15.394  10.549   3.046 -0.1785  0.1468  0.1324
34619W        W65835  23.846   4.133  10.150 -0.0748 -0.2192  0.1861
34620W        W65836  20.594  19.774   9.442  0.0884 -0.0786  0.1258
34621W        W65837  18.357  21.955   8.428  0.2072  0.0160 -0.0081
34622W        W65838  26.792  21.411   0.218  0.1673  0.0427 -0.1254
34623W        W65839  19.500   7.647   6.988 -0.0088  0.1293 -0.2534
34624W        W65840  25.114   9.809   0.709  0.3238 -0.0938  0.0858
34625W        W65841   5.225  20.731   1.584  0.0823 -0.1012 -0.1176
34626W        W65842  18.488  23.024   8.355  0.2356  0.1113 -0.1708
34627W        W65843  22.700  16.692   2.739 -0.2008  0.0817  0.0239
34628W        W65844  14.956  16.232   1.919  0.2160 -0.2719  0.0756
34629W        W65845  24.314   5.239   0.686 -0.2593  0.0539 -0.0153
34630W        W65846  10.469   1.498   9.774 -0.2732 -0.1541  0.1603
34631W        W65847  18.096   9.461   1.777 -0.1296 -0.1231  0.1624
34632W        W65848   7.189  12.996   0.304  0.0846 -0.1672  0.3045
34633W        W65849  22.105  12.068   8.153 -0.2184  0.2424 -0.1712
34634W        W65850  21.389  20.636   8.919 -0.1835  0.0751 -0.1063
34635W        W65851  11.028  23.540  10.482 -0.1275  0.2037  0.1349
34636W        W65852  16.192   1.539   9.026  0.1440 -0.0271 -0.0754
34637W        W65853  17.058  14.768   3.632  0.1283 -0.2345  0.2576
34638W        W65854  18.569   9.038   1.865 -0.1285  0.0151 -0.0059
34639W        W65855   6.970  24.943   0.065  0.0764  0.1223  0.3336
34640W        W65856  26.267  24.614   1.265  0.0850 -0.1647 -0.0603
34641W        W65857  15.895  23.816   9.688  0.0406  0.1788 -0.0892
34642W        W65858  13.795  20.554   7.294  0.2264  0.0796 -0.2120
34643W        W65859  13.155   0.644   1.950 -0.2267 -0.3967 -0.2017
34644W        W65860   5.062  12.152   9.779 -0.1616 -0.1292 -0.0681
34645W        W65861  23.470  12.740   0.579  0.0263 -0.0765  0.1529
34646W        W65862  20.744   1.163   2.662 -0.3234  0.2871  0.0326
34647W        W65863  14.240   3.473   1.775  0.2754 -0.2766 -0.1397
34648W        W65864   5.556  23.324  10.098 -0.0414  0.1130 -0.1551
34649W        W65865  10.228  25.809   8.714 -0.1813 -0.0415 -0.2461
34650W        W65866  20.453  16.772   0.176  0.1642  0.2495 -0.0939
34651W        W65867  20.806  27.366  10.146  0.1920 -0.0262  0.1431
34652W        W65868  17.159  27.146   1.553 -0.0555 -0.2138 -0.0812
34653W        W65869  25.595  18.363   8.955 -0.2629 -0.3377 -0.2000
34654W        W65870  17.542  12.212   8.723 -0.0117 -0.0748 -0.0702
34655W        W65871  13.712   9.857  10.175 -0.0032  0.2573  0.1975
34656W        W65872  16.361  11.848   7.124  0.1470 -0.0797  0.0534
34657W        W65873   5.816  24.971   4.009 -0.0578  0.2971 -0.4035
34658W        W65874  26.559   9.729   0.610  0.2771  0.2002 -0.2587
34659W        W65875  16.066   3.192   9.556  0.1262 -0.0043 -0.2410
34660W        W65876  19.174  21.993   3.118 -0.1919 -0.2165  0.1438
34661W        W65877  26.864  25.398   3.015  0.0777  0.1863  0.2678
34662W        W65878  25.089  22.650   9.890 -0.0544  0.3436  0.0142
34663W        W65879   9.496  11.379   1.633 -0.0155  0.2784 -0.0758
34664W        W65880  24.280   8.828   9.812  0.1118  0.2082  0.0183
34665W        W65881  14.584  15.388   8.125  0.0777  0.0150 -0.2294
34666W        W65882   4.922  25.322   0.217 -0.1870 -0.2595  0.3965
34667W        W65883  24.670  26.958   2.074 -0.0215  0.0431 -0.2071
34668W        W65884   9.483  22.576  10.504  0.2856  0.1335  0.0488
34669W        W65885  24.649   4.889   8.905 -0.1322 -0.2456 -0.5093
34670W        W65886  21.092   6.259   0.579 -0.2241 -0.0019 -0.2145
34671W        W65887   5.232  17.014   9.681 -0.1052 -0.1663 -0.0249
34672W        W65888  22.809  17.689   7.765  0.0165 -0.2073  0.1959
34673W        W65889   5.233   0.459   8.789 -0.0623  0.4151 -0.0934
34674W        W65890  23.428  10.371   3.992  0.0954 -0.0042 -0.0336
34675W        W65891   6.430   6.848   1.555  0.0075 -0.0797 -0.1192
34676W        W65892  15.464  10.853   8.172  0.0700 -0.0289 -0.1219
34677W        W65893   6.748  23.780   3.505  0.0817  0.0124  0.0325
34678W        W65894   4.204  26.288   8.696 -0.1961  0.1415 -0.0170
34679W        W65895   0.663   6.643   1.444  0.3729  0.2238 -0.1668
34680W        W65896  11.708  14.170   0.547  0.1010 -0.0595 -0.0180
34681W        W65897  12.549  17.422   0.238  0.1786  0.1259  0.0747
34682W        W65898  25.650  11.175   8.752 -0.2608  0.0789  0.0421
34683W        W65899  23.841  16.867   1.514  0.2870 -0.1423 -0.2119
34684W        W65900  14.207  16.928   2.169  0.0375 -0.1287  0.1565
34685W        W65901   8.088   4.022   8.615  0.4551 -0.0127  0.2561
34686W        W65902   5.507  21.902   2.496  0.1795 -0.0127  0.2704
34687W        W65903   6.921   7.993   9.972  0.1832  0.1520  0.0088
34688W        W65904   0.041  21.383   9.204  0.0977  0.3246  0.1421
34689W        W65905  23.179  12.358   8.549 -0.0957 -0.0797 -0.4012
34690W        W65906   8.463   5.570   0.340 -0.0810  0.0998 -0.2541
34691W        W65907   5.917   2.500   7.987  0.0027  0.0163 -0.1003
34692W        W65908   2.958   3.206   3.122  0.2069  0.2189  0.1834
34693W        W65909  21.523  15.491   8.101 -0.0457 -0.0454 -0.3598
34694W        W65910  13.992   4.486   2.050 -0.0902 -0.1120 -0.3240
34695W        W65911   4.572   7.030   7.778  0.1017 -0.0497  0.0551
34696W        W65912  23.856  26.086   2.461 -0.0591 -0.2781  0.0231
34697W        W65913  14.043   5.574   1.550 -0.2490 -0.2465  0.1041
34698W        W65914  15.705  10.044   2.321 -0.3832 -0.2614  0.1352
34699W        W65915   1.769  16.950   2.613 -0.0975  0.3121 -0.0620
34700W        W65916  19.243  14.692   0.450 -0.0920 -0.0758 -0.1578
34701W        W65917  21.870  20.013   1.707 -0.1601 -0.2606  0.1939
34702W        W65918   6.536   8.762   0.223 -0.0010 -0.1242 -0.0720
34703W        W65919  25.224   5.773   0.929  0.1350 -0.0640 -0.4021
34704W        W65920  22.867   9.286   8.469  0.1179 -0.0780  0.2525
34705W        W65921   2.435  17.849   9.401  0.0965  0.2857 -0.2223
34706W        W65922   8.312   9.959   7.233  0.3101  0.0011  0.0310
34707W        W65923  12.436  10.449  10.363  0.2707  0.2427  0.1494
34708W        W65924   8.612   4.158   0.955  0.0339  0.1895  0.0729
34709W        W65925  21.305   8.076   2.985  0.0846  0.1187  0.0998
34710W        W65926  15.647   5.443   0.774  0.0634  0.2122 -0.1154
34711W        W65927  16.832  26.381   2.085  0.0766  0.0215 -0.2162
34712W        W65928  15.396  23.657   1.236  0.0120  0.1850 -0.4560
34713W        W65929   2.735   4.320   2.984 -0.1345  0.3615  0.0687
34714W        W65930   5.604   8.783   1.028  0.2541 -0.1652  0.0732
34715W        W65931  14.777  18.096   8.268 -0.0728  0.1005 -0.2057
34716W        W65932  17.476  25.642   9.623 -0.0544  0.0262  0.0776
34717W        W65933   0.886  10.850   2.911 -0.2547 -0.0707 -0.0010
34718W        W65934   2.505  12.607   3.698 -0.0634  0.1706  0.1487
34719W        W65935   9.381  15.754   0.911 -0.1956 -0.0783  0.0879
34720W        W65936   3.791   6.814   0.508 -0.1384 -0.0576  0.3819
34721W        W65937   5.425  27.586   0.040  0.2327 -0.0061 -0.0759
34722W        W65938  26.593  10.597   9.363  0.0568 -0.0603  0.1075
34723W        W65939  20.301   1.214   0.714  0.0398  0.0772 -0.1268
34724W        W65940  11.196  20.451   9.799 -0.0550 -0.1385 -0.2883
34725W        W65941  26.622  19.375   2.903 -0.3351 -0.1504 -0.0711
34726W        W65942   2.920   9.382   3.172  0.0918 -0.1311  0.0094
34727W        W65943  18.811  21.941   1.454 -0.2670  0.0570  0.2001
34728W        W65944   7.631  22.487  10.044  0.5144  0.1793  0.0621
34729W        W65945  21.660  25.077   9.121 -0.0405 -0.3766 -0.1217
34730W        W65946  12.597  16.630   9.644 -0.0519 -0.2578  0.2031
34731W        W65947  11.481  10.704   9.965 -0.0947 -0.0218 -0.2143
34732W        W65948   0.978   8.257   0.339 -0.1047  0.1644  0.0321
34733W        W65949  14.658  20.303   1.399  0.0674 -0.5965  0.0502
34734W        W65950   9.540  25.314  10.478 -0.1059 -0.1799  0.3783
34735W        W65951   6.854  18.620   0.118  0.1975  0.1187  0.3879
34736W        W65952   9.659   5.820   8.727 -0.1072  0.2519  0.1483
34737W        W65953  18.838   9.575   3.048 -0.0015  0.2560  0.1977
34738W        W65954  16.602  11.269   8.403 -0.0044  0.0459  0.1169
34739W        W65955  26.549  21.355   7.531  0.2882 -0.0472  0.1528
34740W        W65956  10.932   7.035  10.092  0.2993 -0.3169 -0.1727
34741W        W65957   5.982  16.636   9.550 -0.2613 -0.1454  0.1452
34742W        W65958   7.997   3.009   2.328 -0.1159  0.0534 -0.0305
34743W        W65959  20.509  18.242   1.770  0.2491  0.0077  0.2024
34744W        W65960  25.785   5.156   1.270 -0.4502 -0.2230  0.1823
34745W        W65961  27.245  21.340   9.467 -0.1015 -0.1253 -0.2409
34746W        W65962  16.091  26.715   2.516  0.2242 -0.0970  0.1025
34747W        W65963  10.206  21.358   1.972 -0.1526  0.2018 -0.0811
34748W        W65964  24.295  22.497   8.280 -0.3177  0.2096 -0.0413
34749W        W65965  11.934  16.524   0.547  0.1484  0.3560  0.0129
34750W        W65966   9.383  23.585   1.318 -0.0946 -0.2019 -0.2291
34751W        W65967  22.625  15.744   8.376  0.1285 -0.1105  0.0738
34752W        W65968  25.663  19.952   3.244 -0.2173 -0.0077  0.0154
34753W        W65969   3.764  10.450   2.824  0.0759  0.0362  0.1740
34754W        W65970   8.905   3.325   8.026 -0.0255 -0.0864  0.2353
34755W        W65971  15.917  15.590  10.344 -0.0380  0.3135 -0.3211
34756W        W65972  19.066  11.558   0.006 -0.1566  0.3981 -0.3472
34757W        W65973  21.846   6.896   0.498  0.3073  0.1669  0.1627
34758W        W65974  22.727   8.649   1.616 -0.1000  0.1255 -0.1393
34759W        W65975   6.888  18.276   0.872  0.0154 -0.1504  0.1743
34760W        W65976  15.513  10.940   3.456  0.0484  0.2483  0.1096
34761W        W65977  25.236  10.547   0.763  0.1950 -0.0609 -0.3549
34762W        W65978  14.444  10.538   2.706 -0.1450  0.1611 -0.1649
34763W        W65979   5.609   0.068   1.341 -0.0964  0.1932 -0.1524
34764W        W65980  26.479   5.795   8.285 -0.0130  0.1673  0.0858
34765W        W65981   8.232   7.790   9.192  0.0386  0.0466  0.1251
34766W        W65982  21.128  15.077   3.219  0.0214  0.1432  0.1690
34767W        W65983   8.194  24.115   8.933 -0.0506  0.2498  0.0170
34768W        W65984  15.097  26.757   3.223  0.3323 -0.2176  0.0776
34769W        W65985  18.651  24.038   0.833 -0.4928  0.0711  0.0260
34770W        W65986  17.368  21.394   1.287  0.4093  0.0300  0.4100
34771W        W65987  13.117  19.224   9.206  0.3883 -0.0788 -0.2323
34772W        W65988  23.263  11.628   8.732  0.1352  0.1891 -0.1117
34773W        W65989  21.497  26.460   7.661  0.1237  0.1846  0.0181
34774W        W65990  16.064   8.496   2.081  0.1450 -0.2067 -0.1417
34775W        W65991  17.896  21.660   8.692 -0.1402 -0.2744  0.0219
34776W        W65992  13.005   4.979   9.670  0.0190  0.0595 -0.0475
34777W        W65993  26.421  26.192   9.140 -0.0939  0.1133 -0.1962
34778W        W65994  10.690  22.986   9.607 -0.0105  0.4251 -0.2463
34779W        W65995  13.532   8.038   1.069 -0.3399  0.0144 -0.0626
34780W        W65996  27.256   5.565  10.438 -0.0349  0.1860  0.0392
34781W        W65997   7.631  21.695   3.197  0.2150 -0.1534  0.0831
34782W        W65998  22.145  17.867   0.814  0.1938 -0.0821  0.1873
34783W        W65999  24.743  21.208   9.035  0.1480  0.1191  0.1992
34784W        W66000  11.265  26.935   8.165 -0.2695 -0.2265  0.2114
34785W        W66001  16.636  20.687   0.865 -0.0230 -0.1715 -0.2423
34786W        W66002  18.200   0.788   1.843 -0.2645 -0.1773 -0.1660
34787W        W66003  16.413   6.325   1.634 -0.1282  0.1180 -0.0678
34788W        W66004   8.575  25.290   1.085  0.1118 -0.0307  0.0072
34789W        W66005  21.582  24.585   2.521 -0.0013  0.0826  0.0478
34790W        W66006  19.494  13.905   0.992  0.1217  0.1099 -0.2232
34791W        W66007   8.487   9.848   9.461  0.0057 -0.0609  0.0408
34792W        W66008   7.817   8.328   1.563 -0.0855 -0.4611  0.0392
34793W        W66009   1.887   3.233   0.970  0.1112  0.2718 -0.2036
34794W        W66010  16.716   3.361   2.619  0.1712 -0.0444 -0.1342
34795W        W66011  15.028   8.919   0.941  0.1462 -0.2027 -0.1056
34796W        W66012  11.080  26.219   1.509  0.4133  0.0886  0.1043
34797W        W66013   7.894   9.632   1.338  0.2602 -0.1606  0.1581
34798W        W66014   3.935  23.006   0.583 -0.0499 -0.2341  0.1103
34799W        W66015   7.218  11.121   3.438  0.1453  0.0207  0.0965
34800W        W66016  14.078  24.726   8.695 -0.1323 -0.1688 -0.1752
34801W        W66017  20.129   1.936  10.048  0.0364 -0.1291 -0.3449
34802W        W66018  14.809  16.662   2.058  0.1187 -0.1699 -0.3224
34803W        W66019  21.458  15.744   8.927  0.0153  0.0985 -0.2303
34804W        W66020   9.091  22.782   0.850 -0.1831  0.3593  0.1659
34805W        W66021   8.847  27.553  10.393  0.1124  0.0308 -0.4322
34806W        W66022   3.744  21.712  10.019  0.1856 -0.1390 -0.1345
34807W        W66023  18.690  13.005   0.463  0.2618 -0.3059  0.1338
34808W        W66024  19.959  26.477   8.407 -0.0087 -0.1506  0.0256
34809W        W66025   6.750   4.588   0.605  0.1216  0.0737  0.2775
34810W        W66026   8.698  12.169   2.593 -0.0350 -0.3141  0.1888
34811W        W66027  24.543   1.491   0.421 -0.2522 -0.1786  0.0006
34812W        W66028  22.475  13.390   0.160 -0.3725  0.0516 -0.2013
34813W        W66029   1.301  22.088   9.497  0.0761  0.1184 -0.3405
34814W        W66030  18.441  22.056   1.791  0.5540  0.0654  0.1046
34815W        W66031  22.006  18.722   1.286  0.0616 -0.2390  0.1748
34816W        W66032  27.410   0.885   2.936  0.3487  0.1895 -0.1577
34817W        W66033  11.971  12.374   8.563 -0.3551  0.0967  0.1566
34818W        W66034  19.287  23.746   1.378 -0.1607 -0.3413  0.2543
34819W        W66035   0.882  10.712  10.071  0.2976 -0.0347  0.4184
34820W        W66036  22.354  26.238   3.079  0.0060  0.1620 -0.1060
34821W        W66037  22.981   7.930   0.527  0.1230  0.0042 -0.0583
34822W        W66038   9.427  12.811   1.868 -0.0945  0.0241 -0.0699
34823W        W66039  24.569  14.005   1.653  0.1751 -0.0432 -0.1514
34824W        W66040   7.977  11.476   0.499  0.1920  0.2096 -0.1396
34825W        W66041   8.667   4.522   3.206 -0.0945 -0.1200 -0.1727
34826W        W66042   7.724   5.676   1.791 -0.0389 -0.0438 -0.0280
34827W        W66043   5.930   9.110   0.143  0.0939  0.0918  0.2772
34828W        W66044  27.147  13.036   0.822 -0.1244  0.3048 -0.1923
34829W        W66045   3.259   2.740   9.471 -0.0661 -0.1467 -0.0911
34830W        W66046  17.310  17.343   8.085 -0.0931 -0.3876  0.0973
34831W        W66047  16.440   0.893   9.391 -0.3632 -0.2247  0.1725
34832W        W66048   1.437  15.503   2.796 -0.2676  0.0234 -0.2111
34833W        W66049  12.923  10.894   3.981 -0.1171 -0.3958 -0.1652
34834W        W66050  24.674  15.195   0.429  0.0737  0.3723  0.2278
34835W        W66051  19.093   3.949   9.982 -0.2924 -0.3176 -0.1499
34836W        W66052  15.522  23.078   2.250  0.0263 -0.1634  0.1806
34837W        W66053  17.094   1.793   8.481 -0.0973 -0.1406 -0.0478
34838W        W66054  23.357  10.388   8.093  0.0897  0.0504  0.0204
34839W        W66055   9.701  13.861   8.378  0.1213 -0.1869  0.2541
34840W        W66056   6.540  10.060   1.864  0.2441  0.0954 -0.1387
34841W        W66057  15.603   3.944   1.488 -0.1212 -0.1966 -0.0221
34842W        W66058  18.563  21.349   7.614  0.1794 -0.1112  0.3903
34843W        W66059  10.207   1.430   1.297 -0.1954 -0.2414 -0.2178
34844W        W66060  10.795   6.535   2.205 -0.4001  0.1933 -0.0748
34845W        W66061   6.557  15.691   0.054 -0.2346 -0.1907  0.5242
34846W        W66062  27.094  25.880   1.190  0.0149 -0.1132 -0.1532
34847W        W66063  15.754  12.269   2.405 -0.0342 -0.4067  0.1488
34848W        W66064   7.241  21.342  10.179 -0.0581  0.1732  0.0232
34849W        W66065  26.409  23.324  10.104 -0.0293  0.3159  0.2179
34850W        W66066   3.559  12.942   8.671  0.0838 -0.3499 -0.3168
34851W        W66067   6.957  12.660   9.979  0.1186 -0.1233  0.0217
34852W        W66068  13.875   6.135   2.529  0.0397  0.0027 -0.0896
34853W        W66069  13.406   3.846   2.289 -0.2380  0.1976 -0.1598
34854W        W66070   8.087   3.748   9.712  0.0428 -0.2320 -0.0618
34855W        W66071  15.302  10.479   2.545 -0.1931  0.1756  0.1462
34856W        W66072   6.638   9.315   8.170 -0.0016 -0.1581 -0.0749
34857W        W66073   1.016  13.335   0.768  0.0893 -0.1200 -0.0015
34858W        W66074   0.768  23.407   1.747 -0.1088 -0.1894  0.1730
34859W        W66075  14.348  11.009   2.877  0.0715  0.0514  0.2227
34860W        W66076  23.478   3.000   1.692  0.1292  0.0618  0.0336
34861W        W66077  15.313  15.038   0.262 -0.1039 -0.0415 -0.1287
34862W        W66078  14.889   7.281   8.653  0.3794  0.1531  0.3175
34863W        W66079  14.072  26.617   9.647 -0.0665  0.3519 -0.2369
34864W        W66080   0.979  24.577   1.481  0.1919 -0.0039  0.0372
34865W        W66081  11.770  19.328  10.172 -0.1877 -0.1898  0.1409
34866W        W66082  27.035  10.878   3.175  0.1043 -0.0687  0.0346
34867W        W66083   9.204  16.481  10.445  0.0355 -0.1452  0.1027
34868W        W66084   3.284  11.838   0.189  0.3784 -0.3888 -0.0441
34869W        W66085  17.721  19.993   9.568 -0.1892  0.3341 -0.1124
34870W        W66086   8.244   2.225   8.660 -0.2378 -0.2505  0.1571
34871W        W66087  17.082  19.692   2.819  0.1564 -0.2805 -0.4321
34872W        W66088  17.931   8.548  10.420  0.1912 -0.0794 -0.0866
34873W        W66089  12.766  18.552   8.325 -0.2326 -0.1648 -0.1103
34874W        W66090  16.604  27.615   3.410 -0.0252 -0.1436 -0.1310
34875W        W66091   7.352  21.765   1.963 -0.0412  0.2912  0.1097
34876W        W66092   2.313  15.879  10.284  0.0260 -0.0762  0.0138
34877W        W66093   5.934  19.244   0.123 -0.1660  0.0718  0.0893
34878W        W66094  20.401  14.231   9.730  0.0308  0.0681 -0.1776
34879W        W66095  13.552   2.381   7.814 -0.2989  0.1212  0.1426
34880W        W66096  26.642  19.545   9.898 -0.1645 -0.2438 -0.2372
34881W        W66097   8.062   2.262   2.402 -0.0793 -0.2023 -0.3396
34882W        W66098   5.216   7.296   2.917 -0.2668 -0.0521  0.3647
34883W        W66099   8.191  17.447   8.208  0.0058 -0.1320 -0.2038
34884W        W66100  17.785  13.116   9.766 -0.1049  0.0115 -0.3412
34885W        W66101   0.497   9.199   1.123 -0.1254  0.3742  0.0626
34886W        W66102   2.162  20.115   7.789 -0.2938 -0.1931 -0.0066
34887W        W66103  23.854   8.944   1.367  0.0443  0.0225  0.3162
34888W        W66104   6.856  19.284   8.385 -0.0900  0.0134  0.0082
34889W        W66105   0.709  23.755   2.069 -0.2870 -0.0979  0.2922
34890W        W66106  27.049  20.625   3.976  0.0343  0.0805 -0.1347
34891W        W66107  20.091  15.009  10.032  0.1656  0.1981 -0.0323
34892W        W66108  19.884  16.279   0.654 -0.1314  0.0760  0.0018
34893W        W66109   6.454  24.076   1.314 -0.0454  0.1897  0.0414
34894W        W66110  15.545  26.125   4.586  0.1102  0.0907 -0.0198
34895W        W66111   5.370  15.334   8.336 -0.0072  0.0556 -0.0436
34896W        W66112   5.087  26.275   8.312  0.2383  0.1281  0.3274
34897W        W66113  27.518   3.333   2.652 -0.0433 -0.0500  0.1052
34898W        W66114  19.306   2.627   1.729 -0.2249  0.0573  0.3288
34899W        W66115   1.023  12.625  10.060 -0.0024 -0.0580 -0.0739
34900W        W66116  21.959  17.093   2.836  0.0483  0.2088  0.0780
34901W        W66117  24.967  22.110   9.135 -0.2213 -0.2313  0.4074
34902W        W66118  25.168  17.529   9.151  0.0864  0.2838 -0.1382
34903W        W66119  19.489  21.798   0.199 -0.0142  0.1244  0.2330
34904W        W66120  20.896   3.967   1.849 -0.0450  0.0684  0.0369
34905W        W66121  12.155  23.905   7.897 -0.1116  0.1442  0.3701
34906W        W66122  12.225   1.175   0.070 -0.0033 -0.1395  0.2219
34907W        W66123   4.312   6.816   0.187  0.0812  0.0831 -0.1067
34908W        W66124   6.235  17.658   2.606 -0.0731 -0.0814 -0.0138
34909W        W66125   1.925  23.459   2.966 -0.0842 -0.1320 -0.0679
34910W        W66126  12.274  21.964   2.177  0.3377  0.1807  0.3885
34911W        W66127  24.422  17.493   9.627 -0.1432 -0.0194  0.0653
34912W        W66128  17.320   2.363   9.810  0.1527  0.2134  0.1858
34913W        W66129   1.223   1.663   0.295  0.2863 -0.3139  0.0282
34914W        W66130  13.019  26.015   8.542 -0.0306 -0.0063  0.2447
34915W        W66131   3.752   1.233   2.174  0.0160 -0.1598 -0.0452
34916W        W66132  23.988  17.567   9.866  0.0702  0.2891 -0.1423
34917W        W66133  17.775  25.489   1.781 -0.0580  0.1872  0.0735
34918W        W66134   1.232  16.203  10.174 -0.0533 -0.0070 -0.2779
34919W        W66135  15.640   3.163   8.880  0.0668  0.0017 -0.4993
34920W        W66136  26.486  18.208   0.328  0.2012 -0.0936 -0.3085
34921W        W66137   1.130  18.169   9.208  0.1654 -0.3063  0.1030
34922W        W66138  21.065   9.246   8.569 -0.1068 -0.3900 -0.1770
34923W        W66139   0.886  13.946   2.626 -0.0878  0.1803 -0.0888
34924W        W66140  11.867  15.576   1.179  0.0582 -0.0745 -0.0372
34925W        W66141  20.290   2.045   8.236 -0.1665  0.0536  0.0700
34926W        W66142  16.690  15.601   9.835  0.0064  0.0336  0.2872
34927W        W66143  13.752  12.522   0.418  0.1530  0.2965 -0.1367
34928W        W66144  24.149   8.365   1.036  0.0219 -0.5078 -0.0264
34929W        W66145   5.327  15.342   3.060 -0.0511 -0.0799  0.0849
34930W        W66146  11.615   4.428   3.043  0.0943  0.1101 -0.0014
34931W        W66147  16.515  23.318   2.212  0.1010  0.2976  0.1439
34932W        W66148   2.321  12.829   1.430 -0.1687 -0.0135  0.1494
34933W        W66149  15.126   4.982   3.998  0.0317  0.1559 -0.0641
34934W        W66150  17.628  19.547   0.272 -0.2001  0.3623 -0.5595
34935W        W66151  24.760   8.255   0.031 -0.1759 -0.1421  0.2314
34936W        W66152   8.220   3.315  10.305 -0.0150  0.1041  0.1601
34937W        W66153  17.085   3.611   0.988  0.1079 -0.0468  0.1453
34938W        W66154   3.820  20.670   1.970 -0.0511 -0.0407 -0.3274
34939W        W66155   6.742  13.684  10.145  0.2082 -0.2185  0.0942
34940W        W66156  17.292  11.746   0.059  0.0849  0.1860 -0.1959
34941W        W66157  10.428   8.043   1.004  0.1569 -0.1283 -0.0605
34942W        W66158   2.204   7.191   9.040  0.0619  0.1298  0.0761
34943W        W66159   0.499  13.310   0.580  0.0777 -0.2163 -0.0702
34944W        W66160  16.520   2.464   2.855 -0.2409 -0.3402 -0.1006
34945W        W66161  14.764  13.886   2.193 -0.0258 -0.0313  0.1023
34946W        W66162   6.284   1.918  10.540  0.3397 -0.2180  0.1200
34947W        W66163   1.884  20.114   9.898 -0.0435  0.2798 -0.0645
34948W        W66164  16.715   9.872   9.848  0.0389 -0.3164 -0.0641
34949W        W66165  15.632  16.034   9.390 -0.1689 -0.3063  0.2375
34950W        W66166  25.083  10.926   2.664 -0.2171 -0.0575  0.2198
34951W        W66167  18.616   6.060   2.346 -0.1631 -0.1495 -0.1355
34952W        W66168  20.635  10.748   9.901 -0.0300 -0.0674  0.0524
34953W        W66169  16.967  21.693   7.879 -0.0429  0.2707 -0.2394
34954W        W66170   6.168  23.849   0.878  0.0922  0.0046 -0.2071
34955W        W66171   2.317  26.207   8.916 -0.4036  0.0644  0.1463
34956W        W66172  22.905   4.231   9.305  0.0672  0.0528  0.0760
34957W        W66173   1.337  27.127  10.278  0.0294 -0.1124 -0.1480
34958W        W66174  19.426   0.628   9.814  0.3700  0.1465  0.3057
34959W        W66175  24.000  13.902   2.476 -0.3665 -0.2767 -0.1240
34960W        W66176  26.011   2.247   9.895 -0.1283 -0.0713 -0.0377
34961W        W66177  20.666  11.584   0.107 -0.2215  0.0168 -0.2540
34962W        W66178  20.220  17.664   8.606  0.0291 -0.2700 -0.0039
34963W        W66179   5.362  13.898   9.128  0.0276 -0.4771  0.1979
34964W        W66180  26.215   4.452   8.184 -0.1396 -0.0193  0.1986
34965W        W66181   4.551   5.866   0.113  0.0109 -0.2141  0.2663
34966W        W66182   8.566  24.415   9.830  0.2910 -0.1115  0.1924
34967W        W66183   6.363   3.778   0.962 -0.0399 -0.0348  0.0898
34968W        W66184  10.257   8.817   0.437  0.3683  0.3293  0.1214
34969W        W66185  10.856  11.391   7.354  0.1171  0.1752  0.1408
34970W        W66186  21.594   3.762   2.315 -0.1777  0.0208 -0.0923
34971W        W66187  16.324  16.592   2.207 -0.2420 -0.1407 -0.3651
34972W        W66188  10.791   8.411   3.210 -0.4879 -0.1171  0.1569
34973W        W66189  16.398   7.870  10.177  0.4099 -0.0146  0.4044
34974W        W66190  20.398   8.200  10.244 -0.0983 -0.0903 -0.1793
34975W        W66191  22.159  25.489   2.423  0.2001  0.1910  0.1360
34976W        W66192  11.888  23.800   3.163  0.4139 -0.0750 -0.0836
34977W        W66193   0.241   4.781   0.071 -0.1127  0.1976  0.2627
34978W        W66194  19.949  12.972   7.705  0.0965 -0.1099 -0.1772
34979W        W66195  18.951   1.946   8.977 -0.1271  0.2450  0.1729
34980W        W66196  20.610  16.021   2.388  0.1089  0.1560  0.1201
34981W        W66197  14.166  16.251   4.013 -0.2963 -0.0104  0.0708
34982W        W66198   1.076   9.665   1.573 -0.0287 -0.1629 -0.0795
34983W        W66199  25.168  19.253   1.144  0.1209  0.4302  0.0482
34984W        W66200  22.516   5.350   8.610  0.0593  0.1029  0.3783
34985W        W66201  16.758  15.263   2.892  0.2223 -0.0057  0.0747
34986W        W66202   1.715   9.841   8.994 -0.0288  0.0062  0.1413
34987W        W66203   8.724   6.322   2.100  0.1524 -0.3415  0.0055
34988W        W66204   6.382  12.300   0.133  0.0565 -0.1391 -0.3604
34989W        W66205  16.253  19.303   1.457 -0.1711  0.3951 -0.1008
34990W        W66206  18.385  26.378   1.125  0.1838 -0.0599 -0.1944
34991W        W66207  15.914  26.882   9.116  0.0741  0.4011  0.0695
34992W        W66208  16.210  20.929   2.905 -0.1342  0.1478 -0.1471
34993W        W66209   8.895   2.981   8.426 -0.1334  0.2445  0.1855
34994W        W66210   5.428   8.343   1.247 -0.0038 -0.0895 -0.0931
34995W        W66211   4.435  12.080   2.385 -0.0798 -0.3713 -0.1607
34996W        W66212  25.855  10.500   3.061 -0.1620 -0.0443 -0.0348
34997W        W66213   1.236  21.524   7.468  0.1763 -0.0586 -0.0096
34998W        W66214   4.914   1.433   8.442  0.0801 -0.0128  0.0937
34999W        W66215   9.543  15.167   8.759 -0.1460  0.0827 -0.0195
35000W        W66216  23.705   8.168   8.397 -0.2166 -0.3170  0.3486
35001W        W66217  14.910  27.156   9.377 -0.0096  0.1516 -0.0625
35002W        W66218  27.380  11.255   8.091  0.0986  0.1131 -0.1029
35003W        W66219  22.678  18.051   8.162 -0.2191  0.1177  0.2013
35004W        W66220  24.105  25.494   3.356  0.1435  0.1266  0.1514
35005W        W66221  12.275  19.407   8.114 -0.4193 -0.1532 -0.1132
35006W        W66222  16.427   8.659   9.428  0.0620  0.1505 -0.2033
35007W        W66223   8.676  10.937   1.509  0.0738  0.0977  0.0977
35008W        W66224   0.075   3.038   8.142  0.0805 -0.2122 -0.1034
35009W        W66225  18.258   0.368   3.156 -0.0888  0.2646 -0.5479
35010W        W66226  11.886   5.765   1.036 -0.2383 -0.0507  0.0381
35011W        W66227  11.516   3.335   0.322 -0.0580 -0.1334  0.0044
35012W        W66228  23.619   0.288   1.273 -0.1793  0.0405 -0.0547
35013W        W66229  26.556   2.723   1.388 -0.0609  0.1733 -0.1076
35014W        W66230  10.964   8.682   9.291 -0.0279  0.2936 -0.0450
35015W        W66231  13.194   7.520  10.364  0.1750  0.0262  0.1169
35016W        W66232  24.511  21.278   8.173  0.0517 -0.1731  0.1693
35017W        W66233  18.734  22.564   0.784  0.0217  0.0295 -0.1350
35018W        W66234  21.364  18.888   9.511  0.1483 -0.1269 -0.1025
35019W        W66235  22.699   8.711   1.151 -0.2624 -0.1094 -0.0485
35020W        W66236  21.685  25.172   0.514 -0.0234 -0.2092 -0.1008
35021W        W66237  25.320  25.359   8.032  0.2330 -0.2958  0.0682
35022W        W66238   1.411   1.150   2.606 -0.2990 -0.1001 -0.0259
35023W        W66239   7.121  11.435   0.369  0.2263 -0.0925 -0.1867
35024W        W66240  13.546   4.166   8.559  0.0089 -0.3258 -0.1183
35025W        W66241   5.519  12.170   1.783  0.0313  0.0620  0.2337
35026W        W66242  10.156  12.467   0.326  0.1768  0.2687  0.2979
35027W        W66243  12.549  26.014   9.241 -0.0991  0.0115  0.1114
35028W        W66244   1.723  17.368   9.753  0.3073  0.2515 -0.0683
35029W        W66245   9.055  21.913   0.296  0.0225  0.1748 -0.1472
35030W        W66246  15.888  20.162   8.340  0.0138  0.0033  0.1672
35031W        W66247  19.140   8.220   8.902  0.0134  0.0399  0.1517
35032W        W66248  24.178   7.309   8.675  0.1638 -0.0683 -0.1441
35033W        W66249  11.341   3.368   3.565 -0.1575  0.1619 -0.0381
35034W        W66250   7.992  13.554   0.460  0.0499  0.0609 -0.2245
35035W        W66251  26.850  17.575  10.427  0.2376 -0.0936  0.2840
35036W        W66252   6.699  19.750   3.082  0.1655 -0.0009  0.0424
35037W        W66253  14.134   3.301   9.871 -0.3124 -0.1454  0.0184
35038W        W66254   6.327  21.519   1.317 -0.0316 -0.0247 -0.0242
35039W        W66255   3.825   4.855   1.755 -0.3315 -0.2151  0.0178
35040W        W66256  14.606  12.089   2.428 -0.1016  0.1814  0.2003
35041W        W66257   4.360  23.976   0.655  0.1627  0.0479 -0.3601
35042W        W66258  24.108  11.496   8.139  0.0529 -0.1519 -0.0002
35043W        W66259  16.590  10.152   7.933 -0.2019  0.1208 -0.0668
35044W        W66260  16.685  20.573   8.419 -0.0365  0.1347 -0.1084
35045W        W66261  26.472  14.995   1.712 -0.1825 -0.3404  0.0746
35046W        W66262  24.089   4.441   8.181  0.4726  0.2690 -0.0932
35047W        W66263   1.937  19.057   9.258 -0.0373  0.1558 -0.0261
35048W        W66264   2.644  23.439   1.136 -0.1643 -0.0828 -0.2663
35049W        W66265   8.009  12.332   8.201  0.2343  0.2260 -0.0411
35050W        W66266   9.871  19.520   1.953 -0.0670 -0.2054 -0.0891
35051W        W66267  15.961  20.357   0.718  0.0550 -0.1948 -0.0608
35052W        W66268  18.730   0.181  10.374  0.2912  0.2070 -0.1042
35053W        W66269  15.262  24.796   8.547 -0.0206 -0.0942 -0.1899
35054W        W66270  26.208  19.235   9.812 -0.0338  0.0423  0.2523
35055W        W66271   7.835  19.059   8.068  0.1882 -0.4607 -0.5967
35056W        W66272  18.714   0.950   1.003 -0.4827  0.2571  0.1761
35057W        W66273   1.938  24.505   2.503  0.1330  0.0087 -0.0255
35058W        W66274   0.205  11.346   2.193  0.2086  0.1537  0.0231
35059W        W66275  26.932  10.735   2.740 -0.2115  0.1052 -0.2669
35060W        W66276  15.278  17.973   7.418  0.0157 -0.1945 -0.0537
35061W        W66277   2.090  15.688   8.248 -0.2956 -0.2984 -0.0665
35062W        W66278  10.270  21.281   9.991 -0.1864 -0.2713 -0.1224
35063W        W66279  10.792  23.146   2.525 -0.0797 -0.0199  0.4275
35064W        W66280  18.105   3.349   1.844  0.3429  0.1760 -0.3377
35065W        W66281  11.136  24.404   8.209 -0.0272  0.1825  0.1641
35066W        W66282   4.710  12.016  10.205  0.2043 -0.4542  0.1739
35067W        W66283   6.908  12.757   1.152 -0.0574  0.0971 -0.4022
35068W        W66284  23.267   9.322   0.762 -0.4364 -0.3512 -0.0904
35069W        W66285   9.650   7.428   3.556 -0.0186 -0.0256  0.2704
35070W        W66286  13.717   9.331  10.428 -0.3124 -0.1400  0.0667
35071W        W66287   6.896   5.526   7.452  0.0806 -0.1026  0.2398
35072W        W66288   8.414  26.195   1.824 -0.1975  0.1877 -0.0010
35073W        W66289  14.884   5.415   8.486 -0.1390  0.2353  0.0791
35074W        W66290  22.392  27.562   0.155 -0.2031 -0.2719 -0.1752
35075W        W66291  23.004   5.251   3.783  0.1573  0.1533 -0.4607
35076W        W66292   3.867   3.675   2.296  0.2594  0.1115 -0.1734
35077W        W66293  14.600  16.955   1.179 -0.2434 -0.0197 -0.0560
35078W        W66294  17.810  21.889   8.103 -0.0913 -0.3047 -0.1701
35079W        W66295  20.129  17.633   8.120 -0.3990  0.2117 -0.3061
35080W        W66296  25.092  12.455   8.335 -0.0952  0.1129  0.0729
35081W        W66297  18.584  11.401   8.464  0.0311 -0.1548 -0.1599
35082W        W66298  16.331  26.366   2.249 -0.2372 -0.2241  0.0068
35083W        W66299  14.054   1.070   7.966 -0.0728  0.0033  0.3512
35084W        W66300   4.367   9.806   2.891  0.2450 -0.1933 -0.0281
35085W        W66301  27.285   3.024  10.044 -0.0900 -0.0456 -0.2491
35086W        W66302   8.559  23.977   1.313  0.2243 -0.1477  0.0445
35087W        W66303  26.042   7.564   1.376  0.5326  0.0689 -0.1190
35088W        W66304  20.411  26.313   8.873  0.4856  0.0072  0.0281
35089W        W66305  17.058  24.578   0.802  0.1854 -0.2820  0.1342
35090W        W66306  15.690   8.334   0.596  0.1255  0.1142  0.1700
35091W        W66307  23.242   8.288   9.242  0.1429  0.1093 -0.0516
35092W        W66308  23.935  16.934   8.612 -0.3613  0.1368  0.0605
35093W        W66309  26.962   9.406   0.804 -0.0449  0.1351  0.1256
35094W        W66310  23.171  15.703   8.905 -0.0181  0.2214  0.2982
35095W        W66311  16.445  17.077   9.386  0.2058 -0.0560 -0.1352
35096W        W66312  14.699   4.145   2.433  0.2052 -0.0399  0.0439
35097W        W66313   5.042   0.019   3.016 -0.1363 -0.3406  0.0732
35098W        W66314  13.746   4.129   8.094 -0.0776  0.0088  0.2525
35099W        W66315  26.536   3.724  10.532  0.0251  0.1670  0.2242
35100W        W66316   5.471  10.877   1.894 -0.0634  0.0376  0.1564
35101W        W66317  20.102  14.797   9.175 -0.1199 -0.0458 -0.0549
35102W        W66318  15.912  26.107   1.893 -0.1671 -0.0506 -0.0019
35103W        W66319   2.294  11.014   3.173  0.1760  0.0619  0.1307
35104W        W66320  26.942   1.571   8.366  0.0160  0.1694  0.0092
35105W        W66321  19.067   8.684   9.072 -0.0348 -0.0543 -0.3212
35106W        W66322  12.804  10.566   0.545 -0.1848  0.3380 -0.3213
35107W        W66323   3.325   5.804   9.505  0.1837  0.0175  0.0628
35108W        W66324  14.355   4.958   9.059 -0.0427  0.4230  0.2466
35109W        W66325  15.571  25.561   9.203 -0.0325 -0.0566  0.4232
35110W        W66326  18.845  25.420   8.520 -0.2082  0.3996 -0.0021
35111W        W66327   1.876   2.761   9.710 -0.3517 -0.1651  0.3217
35112W        W66328  10.436   5.291   9.567  0.0015  0.0979  0.0728
35113W        W66329   9.991   9.880   7.920 -0.2177 -0.1224 -0.3732
35114W        W66330  25.664   7.254   1.431  0.2232  0.1535 -0.1986
35115W        W66331  14.056   7.371   8.277 -0.2380  0.3053  0.0084
35116W        W66332  24.339  21.769   3.483 -0.1204 -0.2469  0.0262
35117W        W66333  18.523   0.779   8.105 -0.1641  0.1938 -0.0226
35118W        W66334  21.958   0.542   8.985 -0.2123  0.0953  0.3354
35119W        W66335  10.553  21.403   0.943  0.1674  0.0348  0.0118
35120W        W66336  12.549   5.920   8.669 -0.2342 -0.0134 -0.2078
35121W        W66337  19.865  11.257   8.827 -0.0918  0.4024 -0.1677
35122W        W66338  24.720  15.873   7.884 -0.3142 -0.3020 -0.0179
35123W        W66339  18.485   3.162   1.520  0.1463  0.0635 -0.2007
35124W        W66340   6.390   7.844  10.489 -0.1157 -0.0158  0.0744
35125W        W66341   0.409   4.778   9.109 -0.4898 -0.1647 -0.3318
35126W        W66342  25.156   9.210   3.235 -0.2719  0.1543 -0.0834
35127W        W66343  19.385   6.033   8.486 -0.7045  0.0962  0.3262
35128W        W66344  19.967  16.797   3.496  0.0138 -0.2704 -0.1561
35129W        W66345  27.601   1.116   0.744 -0.1507 -0.1830 -0.1982
35130W        W66346  15.879  14.274   2.989  0.2873  0.1773  0.2074
35131W        W66347  10.632   8.765   1.815  0.1360  0.0394  0.2446
35132W        W66348  21.624  18.393   8.269  0.0163 -0.0060  0.2320
35133W        W66349   3.564  24.271   8.672  0.0565 -0.1407  0.0763
35134W        W66350  22.881   1.880   2.815  0.0296 -0.0406 -0.0230
35135W        W66351   4.232   4.343   0.219 -0.1881  0.1219 -0.2461
35136W        W66352  18.323  15.798   8.469  0.1026  0.0009 -0.0702
35137W        W66353  11.039   9.837  10.127  0.0728  0.0626 -0.2171
35138W        W66354  22.038   4.559   9.670  0.1302  0.1038  0.0180
35139W        W66355  25.417  27.445   3.006  0.1453  0.3472 -0.1802
35140W        W66356   9.086  18.259   3.221 -0.0707  0.1190  0.1254
35141W        W66357  11.829  10.339   2.624 -0.0107  0.1405  0.3433
35142W        W66358  25.457   7.003   8.215  0.1364  0.0589 -0.0205
35143W        W66359  13.368  11.257   0.298  0.2431 -0.0963  0.0735
35144W        W66360  17.054  20.664   2.422 -0.1569  0.2944 -0.0684
35145W        W66361  17.897  15.241   9.819 -0.0387  0.0775 -0.0698
35146W        W66362  13.589  26.970  10.392 -0.1030  0.0338 -0.0609
35147W        W66363  21.868  11.277   2.758  0.1592  0.0938 -0.0366
35148W        W66364  11.995  25.480   2.248  0.1083 -0.0019  0.0602
35149W        W66365  25.689  18.321  10.069  0.1645 -0.4125 -0.2391
35150W        W66366  10.142  27.064   8.964  0.0784 -0.1828 -0.0256
35151W        W66367  15.731  24.020   1.462 -0.0471  0.0356  0.0779
35152W        W66368  27.347  17.014   2.475  0.0362 -0.2332 -0.0929
35153W        W66369  22.446   7.969   3.003  0.1647 -0.0365  0.0266
35154W        W66370  20.983   4.600   0.151 -0.3108 -0.2709 -0.3258
35155W        W66371   3.144  15.617   8.923 -0.1642 -0.1842 -0.2435
35156W        W66372   9.176  15.246   3.132  0.1987  0.0310 -0.0860
35157W        W66373  27.293   6.998   0.717 -0.2904 -0.0913 -0.0158
35158W        W66374  24.167  11.504   3.796  0.0056 -0.5268  0.0488
35159W        W66375   5.422  21.850   7.873 -0.3424  0.0225 -0.0609
35160W        W66376   0.248  27.477   0.485  0.4105 -0.0219  0.0690
35161W        W66377  21.943  12.126   1.101  0.1750  0.2793 -0.0166
35162W        W66378   8.677  22.580   7.882 -0.0250  0.1650  0.0946
35163W        W66379   1.746  11.527   0.414  0.0365  0.1539  0.0711
35164W        W66380  16.271  25.054  10.085  0.0119  0.0402  0.2202
35165W        W66381  12.547  15.198   0.135 -0.0677 -0.0444 -0.3224
35166W        W66382   2.424  23.396  10.383 -0.2114  0.0504  0.1723
35167W        W66383  14.589  10.591   0.369  0.2271  0.2915 -0.2592
35168W        W66384  25.764   3.152   2.156 -0.0737 -0.0464  0.3189
35169W        W66385   1.224  26.776   1.247 -0.4797 -0.1087  0.3298
35170W        W66386  16.484  24.702   2.954 -0.0372  0.0984  0.2729
35171W        W66387  18.719  14.716   0.407 -0.0136 -0.2692  0.1227
35172W        W66388   0.232  18.859   1.228 -0.1375  0.1449 -0.1065
35173W        W66389   8.985   5.621   1.123  0.1812  0.0363 -0.0156
35174W        W66390  22.080   5.428   8.834 -0.1922 -0.3883  0.0046
35175W        W66391  13.924   6.316  10.275 -0.1855  0.1776 -0.1418
35176W        W66392  12.342   0.631   8.366  0.0877  0.0862  0.1163
35177W        W66393   1.143  21.749   0.595 -0.2041 -0.0161 -0.0765
35178W        W66394  10.613   6.537   0.594  0.2132  0.2552 -0.0449
35179W        W66395  18.721   5.524   7.524 -0.1059  0.2061 -0.3371
35180W        W66396   7.629   0.573   2.399  0.2893 -0.3423  0.0764
35181W        W66397  22.058  16.524   1.798 -0.2756 -0.0017 -0.2152
35182W        W66398  15.615   5.394   9.215  0.1236 -0.0116 -0.1631
35183W        W66399  27.303  18.819   2.785  0.0719  0.0339 -0.0638
35184W        W66400   4.317  23.695   1.100 -0.2347  0.1623 -0.0629
35185W        W66401  12.599  25.358   8.465  0.0026  0.2223 -0.0447
35186W        W66402  17.877  21.197   2.761 -0.2362 -0.1492  0.1162
35187W        W66403   3.476  25.732   9.952  0.1843  0.0999  0.3595
35188W        W66404  21.600   3.240   2.961  0.2425 -0.1632  0.0144
35189W        W66405   3.162   9.049   2.357  0.3394 -0.2213  0.0361
35190W        W66406  21.074  19.298   2.265 -0.1590 -0.0662  0.0057
35191W        W66407  14.457   2.215   1.448  0.0699  0.0391 -0.1267
35192W        W66408   2.873  11.510   7.763  0.2466 -0.0279 -0.1499
35193W        W66409  17.802  18.980   2.266 -0.1882  0.2318 -0.2411
35194W        W66410  15.592   7.218   9.203  0.1839 -0.0811 -0.2113
35195W        W66411   0.956  15.548  10.327 -0.1722  0.2420  0.0124
35196W        W66412  22.487   0.398   7.229  0.1068  0.2151  0.0959
35197W        W66413  22.377  11.779   7.318 -0.1394 -0.2766  0.3253
35198W        W66414  13.607   2.081   2.739  0.0367 -0.2540 -0.3500
35199W        W66415  24.969  10.848   3.314 -0.1788  0.0902  0.3810
35200W        W66416   5.869   6.474   1.405  0.0856 -0.1307 -0.0799
35201W        W66417  16.528   4.482   1.787  0.1788  0.1800 -0.0986
35202W        W66418  22.703   9.793   7.671  0.0714  0.1085  0.1665
35203W        W66419  22.589  14.897   8.764 -0.0073  0.1345  0.2722
35204W        W66420   3.453   2.770   8.552 -0.0645  0.0515 -0.1520
35205W        W66421  21.062  16.218   8.620 -0.1128  0.0229  0.0485
35206W        W66422  25.916   5.807  10.389 -0.0342  0.0927 -0.0538
35207W        W66423   7.225   3.045  10.446  0.3661  0.1030 -0.2274
35208W        W66424  20.657   8.962   8.575 -0.0705  0.3009  0.0926
35209W        W66425   0.123  18.380   8.111  0.1330  0.1856  0.0146
35210W        W66426  16.242   4.022   2.059 -0.2590 -0.0955 -0.1318
35211W        W66427  26.907   0.611   8.385 -0.1156  0.0336 -0.0142
35212W        W66428  25.481  15.502   1.264  0.1784  0.1493  0.4318
35213W        W66429   7.071   4.888   8.160 -0.1026 -0.0491  0.1302
35214W        W66430  24.145  11.774   7.716  0.0238  0.2070 -0.0777
35215W        W66431  21.938   7.355   9.380  0.1343  0.4481  0.1177
35216W        W66432   4.963  14.341   0.719  0.0285 -0.0984  0.4496
35217W        W66433   5.241   4.291   1.335 -0.0718  0.1210  0.3331
35218W        W66434  12.086   3.938   2.137 -0.2549  0.3129  0.0551
35219W        W66435  22.282  15.230  10.129 -0.0746  0.0242 -0.2057
35220W        W66436  19.154   4.184   8.914  0.1387 -0.3535  0.2171
35221W        W66437   0.697   3.853   2.430  0.0274  0.1117  0.0609
35222W        W66438  22.745   6.289   9.408  0.1980 -0.3154  0.0880
35223W        W66439  12.281   8.115   0.863  0.2470 -0.1405  0.0852
35224W        W66440  24.737  21.444   7.302  0.0781 -0.2781 -0.1653
35225W        W66441  22.168  22.624   9.924 -0.0718  0.0170  0.0069
35226W        W66442   1.504  20.650   8.724  0.2758 -0.1096  0.0396
35227W        W66443  13.960  27.061   8.819 -0.1320 -0.0650  0.1487
35228W        W66444   2.938   5.103   2.094 -0.0219 -0.0095  0.2806
35229W        W66445  23.745  18.916  10.313 -0.0661  0.2336  0.1350
35230W        W66446  24.135  14.309   9.846  0.2009 -0.0231 -0.0270
35231W        W66447   3.869  22.595   9.969 -0.0744  0.1691 -0.0957
35232W        W66448   9.229  10.271   8.461 -0.1338 -0.3806 -0.1110
35233W        W66449   7.281  22.762   2.187  0.1766  0.0165 -0.2520
35234W        W66450  16.405  12.557   0.360 -0.0572  0.0543  0.1850
35235W        W66451  27.500  12.034   1.037  0.0411 -0.1081 -0.2118
35236W        W66452  23.167  16.475   7.879  0.0902 -0.0549 -0.0149
35237W        W66453  15.046  11.458   0.689  0.0602 -0.0013 -0.0915
35238W        W66454   1.556  19.525   1.170 -0.1897  0.1292  0.0657
35239W        W66455   4.425   7.610   1.781 -0.1308 -0.1463  0.1354
35240W        W66456   6.988  13.214   7.710 -0.1881 -0.1763  0.1544
35241W        W66457   3.427  15.242   1.996 -0.0491 -0.0965  0.0818
35242W        W66458   4.654  24.713  10.468 -0.2031  0.0764  0.1197
35243W        W66459  19.561  22.291   1.656 -0.0191  0.0163  0.0175
35244W        W66460   2.119   4.232   0.307 -0.2391 -0.2885 -0.4140
35245W        W66461  24.199  25.274   1.438  0.0311  0.0425  0.1663
35246W        W66462  23.908  14.436   1.878  0.3670  0.1701 -0.2311
35247W        W66463   9.964   5.312   2.833 -0.2892 -0.1126 -0.1764
35248W        W66464  15.560  14.095   1.860 -0.0411 -0.0896 -0.0520
35249W        W66465  13.312  20.068   9.039 -0.2193 -0.1082 -0.1593
35250W        W66466  11.793   3.512   9.692  0.0949  0.2556 -0.1176
35251W        W66467  11.625   5.421   8.541  0.1328 -0.4024 -0.2202
35252W        W66468  15.956   2.793   8.777  0.1402 -0.2919  0.2920
35253W        W66469  22.470   8.168  10.080  0.3571 -0.1028 -0.2312
35254W        W66470   0.800   4.351   1.868 -0.2235 -0.1974 -0.2832
35255W        W66471   2.451  10.851   2.070  0.2261  0.1376  0.1246
35256W        W66472  23.662  20.323   2.303 -0.2013  0.3336  0.0808
35257W        W66473   8.908  16.124  10.137  0.2989  0.2124  0.2641
35258W        W66474  25.169   0.426   1.342 -0.2814 -0.0485  0.2131
35259W        W66475  18.612  11.982   3.210 -0.2573 -0.0689 -0.3881
35260W        W66476  23.925   0.803   7.807 -0.0344  0.3326  0.4737
35261W        W66477   6.291  13.428   7.121 -0.0354  0.3067 -0.0240
35262W        W66478  18.016   5.697   0.734  0.2345  0.0486  0.2396
35263W        W66479  18.627  19.584   3.929 -0.0027 -0.0208 -0.3466
35264W        W66480  18.998  11.388   9.280 -0.1804  0.2248  0.0597
35265W        W66481  15.824  10.983   7.590 -0.0099 -0.2110 -0.0020
35266W        W66482  21.629   8.828   8.239  0.3536  0.0715  0.1308
35267W        W66483  12.343  27.078  10.054  0.1488 -0.3157 -0.2051
35268W        W66484  19.097   7.592   8.596 -0.0498 -0.2975 -0.3066
35269W        W66485  22.857  19.050   7.301 -0.3719  0.0202  0.1633
35270W        W66486  11.453  13.696   1.165  0.0831 -0.0245  0.2390
35271W        W66487  14.489  24.117   2.390 -0.0695 -0.3311 -0.0128
35272W        W66488  20.950   0.137   1.041  0.5984  0.2158  0.0442
35273W        W66489  23.125  21.168   2.852 -0.1246 -0.0918  0.1036
35274W        W66490   9.663  26.250   0.882 -0.1297  0.1003 -0.2926
35275W        W66491  17.055   0.442   8.005 -0.0575 -0.0512 -0.0820
35276W        W66492   9.127  21.509   7.655  0.1128  0.2241 -0.0416
35277W        W66493  14.596  15.982   0.051 -0.3445 -0.1491  0.1020
35278W        W66494  21.514  22.343   8.649  0.1955  0.1334  0.3087
35279W        W66495   6.064  19.925   3.768  0.1294  0.0850 -0.3319
35280W        W66496  23.480   3.428   3.504 -0.1197  0.0405  0.1267
35281W        W66497  24.526  20.054   0.178  0.1695 -0.1806 -0.2838
35282W        W66498  10.520   2.397   9.577  0.0829  0.1933 -0.2893
35283W        W66499   5.912   8.766  10.276 -0.3654  0.0976 -0.0239
35284W        W66500   8.895  20.978  10.392 -0.1462  0.0869 -0.4480
35285W        W66501  19.880   3.731   8.458  0.0737 -0.0634  0.1749
35286W        W66502   6.996  11.894   2.400  0.1016 -0.0005  0.0286
35287W        W66503   4.803   5.714   0.549  0.1608  0.2669 -0.1936
35288W        W66504  24.076  15.901   1.949  0.0887  0.1603  0.0901
35289W        W66505  22.032   5.097   1.262 -0.2065  0.1837 -0.4450
35290W        W66506  19.228  11.395   2.832  0.1490  0.1353  0.0647
35291W        W66507  10.656   6.033   3.197  0.1909 -0.0210  0.1993
35292W        W66508  23.454  11.882   0.696  0.0447 -0.1086 -0.1542
35293W        W66509   0.065  14.000   2.305 -0.2357 -0.1648 -0.1747
35294W        W66510  19.140   5.088   1.238  0.0838  0.0957 -0.0965
35295W        W66511   4.810  12.982   2.592  0.0230 -0.0039 -0.2098
35296W        W66512   3.888  11.557   2.154 -0.1485 -0.2477 -0.2506
35297W        W66513  11.010  10.960   0.877  0.0366 -0.2147  0.3534
35298W        W66514  23.042  25.359   0.184  0.1658 -0.0801  0.1032
35299W        W66515  19.918  16.912   9.899  0.1304 -0.0181  0.4149
35300W        W66516  18.516  21.574   1.006  0.0125  0.1543 -0.0893
35301W        W66517  13.299  17.658   8.464 -0.1757 -0.3977 -0.0086
35302W        W66518  16.731  21.655  10.453 -0.0809  0.0806  0.2449
35303W        W66519  13.166  26.035   0.982 -0.3026 -0.2281 -0.1710
35304W        W66520  12.482   6.248  10.525  0.1091  0.2227 -0.0803
35305W        W66521   8.339   1.332   8.514 -0.2477  0.3040  0.0775
35306W        W66522  16.137  19.732   8.072  0.2251  0.1545 -0.0696
35307W        W66523   9.976   1.899   9.107  0.0027 -0.0055  0.1682
35308W        W66524  19.182  17.058   9.128  0.2411 -0.0983  0.1326
35309W        W66525   4.469   4.838   0.504  0.2068  0.0878 -0.2525
35310W        W66526  23.373  13.508   0.201 -0.2184  0.0367  0.2457
35311W        W66527  22.893   4.352   1.498 -0.2279 -0.1598 -0.0721
35312W        W66528  14.224   5.340   9.701  0.1246 -0.0512 -0.1017
35313W        W66529  18.758   9.601   2.404  0.1013  0.1364  0.3660
35314W        W66530  20.257   5.712   1.287 -0.0236  0.0119 -0.2499
35315W        W66531   1.031  24.238   9.810  0.0218 -0.1069  0.1325
35316W        W66532   5.514   0.417   8.150 -0.1470  0.1636  0.0243
35317W        W66533   3.429   9.340   9.045 -0.2270 -0.1504 -0.2595
35318W        W66534  13.671  14.083   7.481 -0.1402  0.0419  0.1490
35319W        W66535  23.441  13.278   8.303 -0.1602 -0.0175 -0.0532
35320W        W66536  18.526   9.693   3.576 -0.0884 -0.4360 -0.2727
35321W        W66537  13.765   5.675   0.415  0.0127 -0.1389 -0.3948
35322W        W66538  11.865   3.601   0.742 -0.3288 -0.0456 -0.0893
35323W        W66539  12.039  17.649   2.599  0.0019 -0.2240 -0.1031
35324W        W66540  22.702   1.175   0.593  0.2080 -0.2522  0.2291
35325W        W66541  17.432   8.512   1.145 -0.1829  0.3096 -0.1319
35326W        W66542  23.177  14.202   1.064 -0.0383  0.1097 -0.2117
35327W        W66543  26.805   4.328  10.398  0.0747 -0.1078  0.0268
35328W        W66544   9.790   0.538   0.005 -0.0791  0.2070 -0.0986
35329W        W66545  14.890   7.153   9.906  0.1003  0.0884 -0.0018
35330W        W66546   7.864  10.040  10.169 -0.0517 -0.1222 -0.1236
35331W        W66547   5.336  18.288   0.349  0.2045 -0.0453  0.1904
35332W        W66548  21.547  14.000   9.685 -0.1285 -0.1414  0.0488
35333W        W66549   0.735  21.389   9.967  0.1243  0.3582  0.4505
35334W        W66550  25.766  15.293   9.862  0.2512 -0.1390 -0.1743
35335W        W66551  21.869   6.027   0.555 -0.2083 -0.0342  0.0013
35336W        W66552  27.584   2.061   1.072  0.0642 -0.1680 -0.2989
35337W        W66553   8.129   8.305   9.924 -0.3316  0.1786 -0.3591
35338W        W66554  18.485  11.281   9.936  0.0094 -0.0340  0.1714
35339W        W66555  16.562  18.517   8.635 -0.1613 -0.1499 -0.1923
35340W        W66556   7.888   4.998   3.068 -0.4095 -0.0255 -0.1230
35341W        W66557  19.635  10.084   2.789  0.0420 -0.2159  0.4027
35342W        W66558  20.328   6.595   0.461 -0.2681 -0.2228 -0.2245
35343W        W66559  22.197  14.285   7.539  0.1604 -0.0973 -0.1144
35344W        W66560   0.001  15.161   2.916  0.2694 -0.3840 -0.1734
35345W        W66561  26.976  10.791   1.290  0.0771 -0.1180 -0.1182
35346W        W66562  22.904  19.708   9.797 -0.0316 -0.2207  0.0271
35347W        W66563  24.446   0.644   0.781  0.0331 -0.2768  0.0256
35348W        W66564   4.043   2.902   2.445  0.4695  0.0298  0.0670
35349W        W66565  17.391  18.638   0.234  0.2133 -0.0881  0.0093
35350W        W66566  22.820   8.124   8.681 -0.2832  0.3587 -0.1488
35351W        W66567  15.273  10.636   8.597  0.3659  0.2233  0.1532
35352W        W66568   5.675   5.312   1.951 -0.3114  0.1419  0.1061
35353W        W66569  10.163  24.794   1.006 -0.2489  0.3339 -0.1524
35354W        W66570  11.086  13.669   2.073  0.0166  0.3079  0.0057
35355W        W66571  10.735  27.213   3.294  0.3051  0.3303  0.0046
35356W        W66572  13.967  23.959   2.951 -0.1201 -0.1551 -0.5348
35357W        W66573  14.636  17.712   9.425 -0.0228 -0.0760 -0.0641
35358W        W66574  18.913  27.270   8.234 -0.2011 -0.1222  0.1302
35359W        W66575  16.955   4.046   0.522 -0.0840  0.0516  0.2254
35360W        W66576   2.611  12.387   1.733  0.2590 -0.1159  0.4194
35361W        W66577   4.670  23.281   2.894 -0.0725  0.4161  0.1262
35362W        W66578  10.128   2.405   9.865  0.0129  0.0302 -0.1337
35363W        W66579   6.008   3.792   9.920 -0.2265  0.0764 -0.1155
35364W        W66580  25.500  13.169   1.119 -0.4058  0.3177  0.0507
35365W        W66581  22.258   2.931   7.686  0.1056 -0.2342  0.0435
35366W        W66582   7.396  16.886   3.951  0.0240  0.1016  0.5305
35367W        W66583  13.021   0.778   2.532 -0.1237  0.0751  0.2330
35368W        W66584  21.113  22.675   2.772  0.0884  0.1474  0.0755
35369W        W66585   4.335  19.474   9.829  0.4717  0.2528 -0.0560
35370W        W66586  24.412   9.093   0.292  0.2805  0.2353 -0.1059
35371W        W66587   8.206  17.190   3.787  0.2559  0.1156 -0.0202
35372W        W66588  26.101  11.442  10.491 -0.0470  0.0304  0.0602
35373W        W66589  21.771  13.020   7.708 -0.1409  0.4797 -0.0008
35374W        W66590  16.490   5.941   8.371 -0.1625 -0.2183  0.0917
35375W        W66591  26.290  20.165   3.783 -0.0982 -0.2486 -0.2330
35376W        W66592  12.565   7.564   9.587  0.1638 -0.1279 -0.0269
35377W        W66593   0.839  17.931   8.369  0.2808  0.0567  0.0907
35378W        W66594  14.814   5.918   0.661  0.1264 -0.0538  0.1124
35379W        W66595   3.272   9.592   8.622  0.1207  0.0280 -0.0944
35380W        W66596  13.651  10.218   0.373  0.0117 -0.1542 -0.2105
35381W        W66597   3.470  14.756   0.638  0.2568  0.0680 -0.2236
35382W        W66598  14.989  26.818   0.598  0.1596  0.0123 -0.0395
35383W        W66599  20.435  13.125   7.455  0.2230 -0.1890  0.0205
35384W        W66600  25.286  12.438   1.235  0.1492 -0.0947  0.2092
35385W        W66601   9.238  12.972   2.471  0.2355  0.1504  0.0238
35386W        W66602   1.353  23.367   7.782 -0.1479  0.1035 -0.3347
35387W        W66603  21.395  19.798  10.091  0.0058  0.0130  0.3147
35388W        W66604  21.743   5.609   9.750 -0.0444 -0.0271  0.3134
35389W        W66605  13.240  11.336   2.829 -0.1643  0.0422  0.3644
35390W        W66606  22.781  25.111   9.698 -0.4402 -0.0591 -0.2014
35391W        W66607  20.533   9.283   0.292 -0.0657  0.2810  0.0744
35392W        W66608  20.365  18.658   2.618 -0.1335  0.0265  0.1290
35393W        W66609   3.251  10.829   9.881 -0.2073  0.0836 -0.0615
35394W        W66610  26.551  19.202  10.186 -0.1180  0.1522  0.0044
35395W        W66611  16.578   1.898   3.817  0.1563 -0.2305 -0.3333
35396W        W66612  25.070  20.776   0.212 -0.1329  0.0655 -0.4093
35397W        W66613  11.315   3.780   9.660  0.2757  0.1040  0.2761
35398W        W66614  22.052   8.044   2.171 -0.0263 -0.1586 -0.1661
35399W        W66615  23.668   3.860   9.682  0.2491 -0.0599  0.2853
35400W        W66616  15.192  16.119  10.078 -0.1427  0.0672 -0.1099
35401W        W66617  17.409   8.991   9.007 -0.1730  0.0823  0.1182
35402W        W66618  22.097   7.270   0.101 -0.0441  0.3157 -0.1448
35403W        W66619   4.701  21.185   1.732  0.0950 -0.3004  0.1556
35404W        W66620  12.518  13.354  10.415  0.0128  0.0863 -0.1131
35405W        W66621  15.174   2.533   3.251  0.0475 -0.2321  0.2641
35406W        W66622   1.602  18.300   9.261  0.2278 -0.1051 -0.2404
35407W        W66623  20.803   9.655   0.054 -0.1308 -0.3968  0.1392
35408W        W66624  24.618  25.281   1.687  0.0404 -0.1023 -0.1490
35409W        W66625  22.872   0.496   9.070  0.1795  0.0113 -0.1494
35410W        W66626  12.815  10.197   1.345  0.0238  0.0422 -0.1026
35411W        W66627  24.613   5.504   8.803 -0.1516 -0.0847 -0.2820
35412W        W66628  15.668  24.872   4.001 -0.1578  0.5492  0.0065
35413W        W66629   5.299   9.574   8.639  0.0128 -0.0575 -0.2582
35414W        W66630   8.075  17.736   7.778  0.1695  0.2130  0.0825
35415W        W66631   9.027  24.311   2.163 -0.0673 -0.2020  0.0236
35416W        W66632   5.003   9.183   8.999  0.1086  0.1386 -0.3983
35417W        W66633   6.507   0.052   9.366 -0.1324 -0.1846 -0.1287
35418W        W66634   4.033  16.558   8.845  0.0665  0.1269 -0.1404
35419W        W66635  17.587  27.221   8.768 -0.0653 -0.1532  0.1035
35420W        W66636  25.101  22.222   9.689 -0.0828  0.1733 -0.0586
35421W        W66637  18.712  18.635   0.207 -0.0190  0.3388  0.1172
35422W        W66638  19.839  10.299   9.656 -0.0199  0.0264  0.1781
35423W        W66639  26.288  17.098  10.442 -0.1600 -0.0613 -0.0177
35424W        W66640  16.620  12.180   7.748 -0.0221 -0.1295  0.2117
35425W        W66641  12.955   4.709   8.387 -0.1551  0.0509  0.1282
35426W        W66642  24.071  11.865   1.680 -0.0572  0.1855  0.0727
35427W        W66643  11.739   6.394   3.011 -0.2967  0.0668  0.0227
35428W        W66644  14.347  10.925   1.204 -0.1890  0.0354 -0.1414
35429W        W66645   9.628  14.429   2.777 -0.0345 -0.1357  0.2192
35430W        W66646  18.442  22.813  10.064 -0.0488 -0.1378 -0.2578
35431W        W66647   3.939  10.022   1.928  0.2233  0.1064  0.0756
35432W        W66648   6.896  27.231   1.376  0.0121 -0.0648  0.1484
35433W        W66649  10.928   5.709   9.457  0.1280 -0.1952 -0.0581
35434W        W66650  12.944  25.893   2.335 -0.2598  0.2982 -0.1987
35435W        W66651  17.093   0.605   3.874 -0.1218  0.2790  0.0315
35436W        W66652   1.726  24.648   9.773  0.1241  0.0976  0.1527
35437W        W66653   7.113  16.416   8.366  0.4667 -0.0079 -0.0008
35438W        W66654  11.516  10.251   0.620  0.0089  0.0248 -0.0716
35439W        W66655   7.098  14.406   0.528 -0.3576 -0.1646  0.3305
35440W        W66656  19.098  17.151   1.844 -0.3050 -0.0308 -0.3764
35441W        W66657   7.904  15.003   1.366  0.3082  0.3115 -0.0740
35442W        W66658   4.783   7.238   9.709 -0.0744 -0.2561 -0.0788
35443W        W66659  15.982   2.263   1.959 -0.1334  0.0178 -0.2579
35444W        W66660  24.898  17.266   7.644 -0.1505  0.2738 -0.1848
35445W        W66661   1.261  18.495  10.248  0.1052  0.0793 -0.0267
35446W        W66662  15.003  25.638   1.043  0.2906 -0.4626 -0.1849
35447W        W66663  20.782  11.443   1.714 -0.1170 -0.0814 -0.0601
35448W        W66664  14.000  19.466   3.185  0.0062 -0.0716  0.0950
35449W        W66665  13.042   4.314   3.446  0.1424  0.2889 -0.4087
35450W        W66666  15.990  10.287   1.402 -0.1588  0.0165 -0.1096
35451W        W66667  12.541   4.945   0.852 -0.0542  0.0282 -0.1656
35452W        W66668  21.228   5.441   0.329 -0.0160  0.1360  0.1509
35453W        W66669  10.143  22.493   7.980 -0.2689  0.1110 -0.0615
35454W        W66670  19.837  20.645   9.855  0.1176  0.1587 -0.2014
35455W        W66671  27.425   0.494   7.436  0.0404  0.0725 -0.0707
35456W        W66672  26.083  27.497   9.328  0.0529 -0.1569 -0.1317
35457W        W66673   3.981   5.070   9.313 -0.0481 -0.2890 -0.0333
35458W        W66674   2.403   6.152   9.955 -0.1809  0.2030  0.0140
35459W        W66675   5.848   3.725   7.968  0.3266  0.1431 -0.1602
35460W        W66676  16.302  26.251   0.971 -0.3892 -0.1868  0.2345
35461W        W66677   1.867  12.930  10.288 -0.0882  0.2144 -0.0495
35462W        W66678  16.881  15.465   2.148  0.3171 -0.1558  0.0565
35463W        W66679  23.896  27.297   9.840  0.0168 -0.2707  0.1983
35464W        W66680  14.324   4.313   1.696 -0.0131 -0.1375 -0.1756
35465W        W66681  12.418  24.679   2.323 -0.1992  0.0521  0.2145
35466W        W66682  16.777  20.592   3.879 -0.1217 -0.0395  0.2129
35467W        W66683  21.122  21.883   3.132  0.0008  0.0783 -0.3697
35468W        W66684  20.075   9.257   9.361 -0.3231 -0.1788  0.1591
35469W        W66685  20.817  22.906   0.949  0.0024 -0.3210 -0.1236
35470W        W66686   5.373  21.179   9.525 -0.0831  0.4134  0.1841
35471W        W66687   9.369   5.253   3.408 -0.1880  0.0187  0.0908
35472W        W66688  18.998  26.869   3.209 -0.1875 -0.1020 -0.1254
35473W        W66689  21.651  19.529   2.584  0.1408 -0.1576  0.2148
35474W        W66690  17.573   0.254   8.277  0.3227 -0.0405 -0.3615
35475W        W66691   1.633  22.775   1.832  0.3125 -0.0161 -0.1589
35476W        W66692  15.338   2.279   0.771 -0.1978  0.2014  0.1099
35477W        W66693  22.242  24.198   2.076  0.1563  0.2209  0.1015
35478W        W66694   6.364  26.898   9.595  0.2677  0.0480 -0.2224
35479W        W66695   2.160  22.909   9.835 -0.0349  0.2769  0.4018
35480W        W66696  21.164  22.719   1.871  0.0757  0.0279  0.0724
35481W        W66697  25.383  16.043  10.084 -0.1868 -0.0716  0.2451
35482W        W66698  15.252  12.111   9.196 -0.1337  0.1786 -0.0013
35483W        W66699   4.895  12.014   0.530  0.0739  0.1397  0.3706
35484W        W66700   4.483  27.082   2.507  0.0656  0.0525  0.0769
35485W        W66701   9.709  25.120   0.422  0.0780 -0.0289 -0.0884
35486W        W66702   5.192  23.542   0.837  0.2060 -0.0452 -0.0206
35487W        W66703  20.900   3.875  10.188 -0.1640  0.0584 -0.0431
35488W        W66704  19.498  12.668   2.480  0.1112 -0.1305  0.1355
35489W        W66705  16.533   9.465  10.063 -0.0851  0.1974 -0.0195
35490W        W66706  19.067   4.377   8.446  0.4080  0.0402  0.1545
35491W        W66707  15.087   1.458  10.375  0.0742 -0.1054 -0.6377
35492W        W66708   0.804  22.982   7.931  0.4120  0.1708 -0.3048
35493W        W66709  18.954  26.384   3.115  0.1362 -0.0429  0.1152
35494W        W66710  13.071   1.683   1.783 -0.1138 -0.0649 -0.0174
35495W        W66711  15.754   8.154   9.057 -0.0885  0.2281 -0.0298
35496W        W66712   7.238  17.803   0.879 -0.1856 -0.1839  0.1632
35497W        W66713  22.753  10.977   0.040 -0.0891 -0.0755 -0.1241
35498W        W66714  27.297  21.753  10.007 -0.2409  0.2518  0.2490
35499W        W66715  11.634  27.168   1.385 -0.1326 -0.1043 -0.0070
35500W        W66716   7.264  15.278   0.981 -0.2136 -0.0076 -0.2098
35501W        W66717   0.355  21.221   2.326  0.0011 -0.2243 -0.1220
35502W        W66718  26.602   3.184   0.711  0.0568 -0.0727  0.3098
35503W        W66719  23.530  23.085   7.545 -0.1271  0.2402  0.0088
35504W        W66720  13.903  14.738   1.953  0.1349  0.1368 -0.0624
35505W        W66721  18.038  10.819  10.264 -0.1511 -0.0084 -0.0045
35506W        W66722   1.231  12.935   0.008 -0.0481  0.2394 -0.0889
35507W        W66723  15.669  25.809   9.673  0.0153  0.2573 -0.0289
35508W        W66724  25.701  25.096   3.377  0.3187 -0.0722 -0.2127
35509W        W66725   6.406   4.803   0.912  0.0518 -0.2068 -0.3244
35510W        W66726  13.664  17.134   0.136  0.1872 -0.1747  0.0954
35511W        W66727   4.929  11.031   8.263 -0.0499 -0.2280  0.0057
35512W        W66728  23.926  20.022   0.821  0.1658 -0.2580  0.1512
35513W        W66729   3.283   2.861   1.037  0.1423 -0.1572 -0.2402
35514W        W66730   3.661  24.472  10.353 -0.2243  0.2564 -0.0792
35515W        W66731  11.451   6.252   0.291  0.0124 -0.3786 -0.2473
35516W        W66732  12.831  12.510  10.514 -0.0717 -0.1354  0.0544
35517W        W66733  24.550  22.207   9.506 -0.0206 -0.0254  0.1300
35518W        W66734  24.420   9.462   1.088 -0.0562 -0.0487 -0.0471
35519W        W66735  14.610   0.661   0.335  0.1159  0.1049 -0.0429
35520W        W66736   1.412   1.344   0.601  0.2022 -0.1022  0.4040
35521W        W66737  24.674   8.329   3.498 -0.2974 -0.1313  0.0283
35522W        W66738  22.085  10.010   7.570  0.3722  0.1303  0.1161
35523W        W66739   9.077  22.145   2.775  0.1670  0.0341 -0.2929
35524W        W66740  26.522   6.865   9.381 -0.2054  0.1975  0.5351
35525W        W66741   1.822   6.870   0.927 -0.1852 -0.0417  0.1312
35526W        W66742  16.949  13.090   7.393  0.2801  0.2049 -0.0243
35527W        W66743  11.253  23.520   9.841 -0.1992  0.0305 -0.0952
35528W        W66744  22.487  19.511   0.060 -0.4379 -0.0669  0.1338
35529W        W66745   3.013   9.676   1.422 -0.1928  0.0039  0.0032
35530W        W66746   6.936  23.216  10.142 -0.3134 -0.1813 -0.2295
35531W        W66747   6.004  22.072   9.625 -0.1333  0.1719 -0.1258
35532W        W66748   6.753  13.964   2.259  0.2384 -0.0718  0.0442
35533W        W66749  14.737  17.803   9.914 -0.0511  0.1604 -0.0229
35534W        W66750  17.286   9.302   0.058 -0.1746  0.1133  0.1151
35535W        W66751   8.747  26.802   2.460 -0.1793  0.1066  0.3152
35536W        W66752   6.233  18.130   2.633  0.0000  0.2216 -0.1947
35537W        W66753  18.275  23.820   2.114 -0.0731 -0.2679  0.1589
35538W        W66754  13.226   9.749   2.599  0.1239  0.1348  0.1184
35539W        W66755  27.585  12.752   0.839 -0.0043 -0.0417 -0.0795
35540W        W66756  24.228  22.943   9.971 -0.2380  0.2989 -0.1991
35541W        W66757  21.271  14.007  10.101 -0.0426 -0.1630 -0.1240
35542W        W66758   7.863   3.147   1.194 -0.3823  0.1300  0.2096
35543W        W66759   5.936   1.701   2.835  0.1096 -0.0645 -0.1163
35544W        W66760   0.031  12.491   1.277  0.1544  0.2567  0.2398
35545W        W66761  26.317  27.081   7.773 -0.0109 -0.1421 -0.2894
35546W        W66762  11.998  16.750   0.957 -0.4178 -0.1077 -0.2216
35547W        W66763   8.082  13.565   9.963 -0.2056 -0.1850 -0.3220
35548W        W66764  18.282  14.196   0.984 -0.0752 -0.1067 -0.2573
35549W        W66765  20.434  27.135   8.214 -0.2174  0.3803 -0.2193
35550W        W66766  10.127  26.850   1.852  0.0757  0.3477  0.0494
35551W        W66767  16.491  15.660   1.770  0.0766 -0.2103  0.0768
35552W        W66768   2.099   7.342   0.849  0.0689 -0.0914 -0.2717
35553W        W66769  27.372  17.477   8.465 -0.2225 -0.0848 -0.0680
35554W        W66770   0.255  18.721   1.784  0.2016 -0.0793 -0.0294
35555W        W66771  27.316  10.344   0.375 -0.1355 -0.0287  0.1831
35556W        W66772   6.533  19.923   9.347  0.1294 -0.0972 -0.0193
35557W        W66773  24.814  22.063   1.028  0.0053 -0.3342 -0.4693
35558W        W66774  10.441  17.043   9.989  0.0535  0.2293 -0.0310
35559W        W66775  18.693  12.139   7.500 -0.3503  0.0130 -0.0516
35560W        W66776   6.819  16.430  10.400 -0.0618  0.0983 -0.0456
35561W        W66777  25.309  18.660   2.818  0.3881  0.0819 -0.1397
35562W        W66778  12.189  21.950   0.388  0.0975 -0.1970  0.2468
35563W        W66779   5.360  26.823   1.473  0.2188  0.3335  0.0543
35564W        W66780   9.486  19.176   0.117  0.1629 -0.0142 -0.2590
35565W        W66781  21.048  21.210   0.280 -0.2704 -0.1943 -0.2457
35566W        W66782  27.466  23.340   0.875  0.2135  0.0967  0.1839
35567W        W66783   5.136   8.190   8.779 -0.0572 -0.2623  0.0503
35568W        W66784  22.465  14.658   0.273 -0.1662 -0.3309  0.0227
35569W        W66785   2.797   4.258   0.242 -0.3264 -0.3057  0.0027
35570W        W66786  15.447   4.578   7.389 -0.1899  0.0060  0.0694
35571W        W66787  25.256   6.403   0.292 -0.1758 -0.1323  0.0115
35572W        W66788  16.706  22.997   8.541  0.3413  0.0786 -0.1184
35573W        W66789  17.407  15.352   9.584  0.1847  0.1045 -0.1731
35574W        W66790  18.377  26.633   8.189 -0.0443  0.1410 -0.0752
35575W        W66791   5.738  20.774   3.511  0.1449 -0.0011 -0.1369
35576W        W66792   4.102   2.530   0.396 -0.0523  0.2906 -0.0766
35577W        W66793  13.481  14.252   1.044 -0.0048 -0.0516  0.2257
35578W        W66794   5.341  22.488   0.407  0.3413 -0.0439 -0.1027
35579W        W66795  18.238  12.701   1.291 -0.0227  0.0825 -0.0925
35580W        W66796   8.723  13.784   0.862 -0.0399 -0.2123 -0.3546
35581W        W66797   5.935  16.142   9.432 -0.1355 -0.1142 -0.0441
35582W        W66798   4.787  19.489   9.528  0.1065 -0.1615  0.1214
35583W        W66799   0.948  13.649   3.281 -0.1304 -0.2560 -0.1156
35584W        W66800   9.066   5.970   2.308  0.1278 -0.0541 -0.0003
35585W        W66801  18.835  15.919   2.378  0.0501 -0.1639  0.0661
35586W        W66802   7.641   3.980   0.980 -0.2131 -0.1473 -0.1062
35587W        W66803   9.816   4.559   0.929  0.1595 -0.0306  0.0846
35588W        W66804  18.163  23.366   2.310  0.0974 -0.3445 -0.0094
35589W        W66805  12.210   5.068   2.919 -0.1215  0.1545  0.0322
35590W        W66806   8.433  11.734   2.888 -0.3142 -0.1149  0.0379
35591W        W66807  11.655   2.168   2.907  0.3208 -0.1294 -0.1051
35592W        W66808  15.675  23.016   9.839 -0.0544 -0.0189 -0.0291
35593W        W66809  26.349   5.451   2.133 -0.1159  0.3277  0.0385
35594W        W66810   8.271   5.587   1.594 -0.1077 -0.0315  0.0946
35595W        W66811   7.595  27.556   0.076  0.0693  0.0296 -0.1633
35596W        W66812  12.156  22.576   9.108  0.1155  0.2455 -0.0514
35597W        W66813   9.070   9.093   3.021  0.1845 -0.0027  0.1147
35598W        W66814  26.415   7.632   1.000  0.0212 -0.0779  0.0387
35599W        W66815   5.581  16.477   2.966 -0.1819  0.1013  0.0547
35600W        W66816  25.535  17.442   0.012  0.0693 -0.1968 -0.0960
35601W        W66817   9.276  25.810   1.967  0.1038 -0.3010 -0.4094
35602W        W66818  25.412   2.269   0.226  0.6427 -0.0733  0.1154
35603W        W66819  11.549   1.684   8.984  0.3426  0.2062 -0.2898
35604W        W66820   7.094   0.634   7.520 -0.0279  0.2261 -0.0874
35605W        W66821  26.504   1.581   2.731 -0.1876 -0.2870 -0.0757
35606W        W66822   0.090  26.728   8.794  0.1091 -0.0559  0.0747
35607W        W66823  10.511  25.595   1.530 -0.2973  0.2193 -0.1566
35608W        W66824   8.239  22.128   8.874  0.0729 -0.3063  0.1429
35609W        W66825  20.826  25.825   8.351  0.1352  0.3144 -0.0967
35610W        W66826  14.834   6.773  10.339 -0.2062 -0.1667  0.1588
35611W        W66827  19.814  26.382   0.684  0.0399  0.1097 -0.1828
35612W        W66828   0.316  25.946  10.251  0.2220  0.2631  0.1740
35613W        W66829   8.835  11.053   8.226 -0.0015 -0.1172  0.0673
35614W        W66830  10.684  24.347  10.043  0.1932  0.0651  0.0225
35615W        W66831  10.375  15.096   2.354  0.2670 -0.0857 -0.3440
35616W        W66832   1.354  22.732  10.070 -0.2111 -0.1110  0.0110
35617W        W66833  18.745  13.134   8.853 -0.1669 -0.2005  0.3775
35618W        W66834  16.307   8.052   9.246 -0.1294 -0.0353  0.2126
35619W        W66835   6.363   7.658   8.351  0.3084 -0.2347  0.0335
35620W        W66836   3.358   9.522   0.778 -0.1393 -0.0859 -0.2775
35621W        W66837  27.166  11.659   7.797  0.0359 -0.0004  0.1648
35622W        W66838  25.229  10.065   8.222 -0.0597 -0.0755 -0.1381
35623W        W66839  25.521  23.904   7.106  0.1305 -0.2422  0.1097
35624W        W66840  11.939   2.884   1.780 -0.1726 -0.3405 -0.2219
35625W        W66841   7.564   7.489   2.948 -0.0229  0.0053  0.0246
35626W        W66842   9.552  26.432   9.764 -0.0228 -0.1633 -0.2309
35627W        W66843  18.597  16.338   2.222  0.0603  0.1642  0.0458
35628W        W66844   1.167   8.742   8.728  0.2162 -0.0215  0.0023
35629W        W66845  14.629   1.478   3.885 -0.1079 -0.0868 -0.1839
35630W        W66846  25.541  26.455   1.859 -0.1368 -0.1057  0.1714
35631W        W66847  27.564   2.490   0.030  0.0859  0.1521 -0.1743
35632W        W66848  18.667  14.256   7.933 -0.0905 -0.0595 -0.2786
35633W        W66849   9.616  11.358   2.593  0.3046  0.5242 -0.4492
35634W        W66850   2.086  10.648   8.669  0.4923  0.1001 -0.0380
35635W        W66851   2.782  15.888   0.982  0.1295 -0.3306  0.1870
35636W        W66852   4.967  12.627   2.907  0.1556 -0.0978 -0.1329
35637W        W66853  14.218   3.077  10.463  0.2157  0.0377 -0.1057
35638W        W66854  13.290  26.854   9.968  0.0138  0.3002 -0.1506
35639W        W66855  26.087  24.339   3.041 -0.4269 -0.0092 -0.0239
35640W        W66856   4.086  19.448   8.611 -0.3445 -0.1844  0.0845
35641W        W66857  22.806  22.471   9.369  0.1048  0.0509  0.0193
35642W        W66858  18.026  21.115  10.444 -0.0967  0.2869 -0.1423
35643W        W66859  15.703  27.463   0.386  0.0175 -0.3989 -0.4112
35644W        W66860  23.859  26.658   0.103 -0.1782  0.2375  0.1100
35645W        W66861   5.200  10.683   7.119 -0.1099  0.1003 -0.2532
35646W        W66862  25.437  23.812   1.405 -0.2521  0.2126  0.1157
35647W        W66863  23.058  24.326   2.339  0.0172 -0.2520 -0.3429
35648W        W66864  21.250   0.932   2.616  0.2579 -0.1128  0.2770
35649W        W66865   8.819  20.182   0.422  0.1700 -0.1389 -0.0152
35650W        W66866  18.927  25.395   0.385  0.2509  0.1608  0.0639
35651W        W66867  18.104   1.746   9.642  0.1899 -0.1968 -0.4103
35652W        W66868   0.522   5.770   9.443 -0.1454  0.2748  0.0720
35653W        W66869   6.536  24.903   9.992 -0.1889 -0.4246  0.0419
35654W        W66870  18.165  14.370   8.407  0.1083  0.0514  0.2822
35655W        W66871  20.821   5.080   0.194  0.1101  0.6199  0.0854
35656W        W66872  27.107   4.256   2.859  0.1656 -0.0454  0.2170
35657W        W66873  11.460  19.501   8.273 -0.0443  0.1863  0.2026
35658W        W66874   9.013  11.293   8.678 -0.4630 -0.0285 -0.1974
35659W        W66875  25.385   5.464   9.327 -0.2076  0.0583  0.0273
35660W        W66876  14.824  25.746   8.012 -0.1130 -0.0608  0.0421
35661W        W66877   9.674  17.669   7.684 -0.0728 -0.2016 -0.3433
35662W        W66878   7.933  12.126   8.658  0.1662  0.2193  0.0748
35663W        W66879   9.674  13.164   3.127  0.0120 -0.1107  0.0347
35664W        W66880  26.989  24.986   8.589 -0.0518  0.1052  0.0166
35665W        W66881  15.853   1.466   1.441 -0.0522 -0.1957  0.0579
35666W        W66882   5.097   3.724   9.342 -0.2107  0.0764 -0.1216
35667W        W66883   6.012  27.154   9.889  0.3058  0.1927 -0.1468
35668W        W66884  20.692   8.105   0.542 -0.1071 -0.1723  0.0313
35669W        W66885  23.444   8.106   7.494  0.0934 -0.1255 -0.2535
35670W        W66886   0.336  27.536  10.127 -0.3462  0.0168  0.0052
35671W        W66887  14.449  15.298   0.764 -0.1260  0.0093  0.0532
35672W        W66888  24.185   8.188   9.240 -0.1734 -0.0473 -0.1572
35673W        W66889  12.627   7.962   8.587 -0.0771  0.3654  0.1285
35674W        W66890  11.051  19.053   0.423  0.0723  0.1142  0.1077
35675W        W66891   6.195  10.461   2.514 -0.1155 -0.0827 -0.2060
35676W        W66892  22.989  25.184  10.218  0.1880 -0.0871 -0.1694
35677W        W66893  27.220  21.369  10.365 -0.0314 -0.0340  0.0679
35678W        W66894   9.142  23.426   2.465  0.2741 -0.5566  0.0443
35679W        W66895  20.740  19.684   7.465 -0.1718  0.2221 -0.0362
35680W        W66896  21.442   2.419   9.515 -0.0349  0.0063 -0.2810
35681W        W66897   2.682  10.667   9.303  0.0325  0.2437  0.1272
35682W        W66898   1.736  22.035  10.485 -0.1936  0.2453 -0.4435
35683W        W66899   0.829  16.602   4.096 -0.0595  0.0625  0.0719
35684W        W66900   7.275  20.690   9.022 -0.0493 -0.1705  0.1473
35685W        W66901  25.900  17.707   7.348 -0.2943  0.0005  0.1524
35686W        W66902  16.569  13.818   1.863 -0.0048 -0.0536 -0.0129
35687W        W66903  22.894   8.380  10.045  0.3073  0.0314  0.0888
35688W        W66904  18.269   7.830   8.437 -0.0493  0.1726 -0.2049
35689W        W66905   8.467  23.592   3.040 -0.1323 -0.0031  0.0651
35690W        W66906  17.461   9.742   1.414  0.2968 -0.1133 -0.0139
35691W        W66907  18.908  13.637   3.568  0.1277 -0.2598  0.1225
35692W        W66908  22.093  23.845   1.677  0.0211  0.1825  0.1049
35693W        W66909  12.367   3.138   2.980  0.1569  0.0993 -0.1079
35694W        W66910   2.789  10.908   1.042 -0.2933  0.0633 -0.0129
35695W        W66911   8.201   7.357   8.790  0.2511 -0.0329 -0.2783
35696W        W66912   8.363  15.162   8.463 -0.0824 -0.1900  0.0040
35697W        W66913  11.590  18.752   2.957 -0.1820  0.3375  0.0897
35698W        W66914  18.381  27.142   1.447 -0.0103 -0.1323  0.2090
35699W        W66915   0.718   0.074   7.512  0.0348  0.0128 -0.3304
35700W        W66916   7.854  22.981   9.359 -0.0565 -0.0440 -0.0643
35701W        W66917  10.548  11.473   8.896 -0.1503 -0.1170 -0.2831
35702W        W66918  11.731  27.489   7.643 -0.0750  0.0359  0.1878
35703W        W66919  13.092  11.484   9.482 -0.1306  0.3360 -0.1755
35704W        W66920   3.262  20.504   9.429  0.1871  0.0335 -0.0886
35705W        W66921  13.933  26.878   0.382 -0.0043  0.0412 -0.2004
35706W        W66922  24.836  26.788   1.558  0.0129 -0.2192 -0.2064
35707W        W66923  21.647  23.663   1.672  0.1975 -0.1169 -0.4064
35708W        W66924   1.111  10.313   1.946 -0.0730  0.0092 -0.2681
35709W        W66925   2.172  18.583   3.207  0.0203 -0.0284  0.0734
35710W        W66926  13.284  10.125   1.127 -0.1407  0.0201  0.1723
35711W        W66927  19.546  15.029   0.652 -0.1825 -0.1636 -0.2778
35712W        W66928   9.316  13.288   1.901  0.0956  0.3574  0.1517
35713W        W66929  15.037   2.265   0.321 -0.1145 -0.0527 -0.0011
35714W        W66930  13.925  12.308   1.310 -0.1639  0.0857  0.2312
35715W        W66931  14.040  14.521   0.934 -0.1622 -0.2131 -0.0927
35716W        W66932  19.205  12.737   1.631  0.2692 -0.1247 -0.0075
35717W        W66933  12.513  20.726   0.803 -0.1240 -0.3809  0.0537
35718W        W66934  12.449  22.976   7.682  0.7058 -0.2815  0.2098
35719W        W66935   8.460  13.648   7.482  0.3864  0.0969 -0.3147
35720W        W66936   9.525   1.219   9.218  0.0588  0.5650 -0.4430
35721W        W66937   5.790  21.183   9.824 -0.3148 -0.0144 -0.1536
35722W        W66938  24.299  11.571   8.680  0.1470  0.1338 -0.0578
35723W        W66939  18.128  13.377  10.506 -0.3805 -0.3310 -0.2480
35724W        W66940  22.501  16.711   8.914  0.0581 -0.0715  0.0699
35725W        W66941  17.909   4.516   8.428 -0.2329 -0.0266 -0.0700
35726W        W66942   6.204  26.588   1.508 -0.1890 -0.0149  0.1455
35727W        W66943  21.842  16.800   1.133 -0.0354  0.1539  0.0295
35728W        W66944   8.058   2.180   7.275 -0.2808 -0.2225 -0.2644
35729W        W66945  19.845   4.143   2.439 -0.2416  0.1582  0.1164
35730W        W66946   2.311   4.718   9.467 -0.3725  0.3370 -0.1007
35731W        W66947  13.276  20.058   2.330 -0.1245  0.1797 -0.1912
35732W        W66948  17.022  25.398   2.868 -0.3499  0.1675  0.1505
35733W        W66949  24.991  27.309   2.752  0.2863  0.0286 -0.0152
35734W        W66950  20.355   4.513   1.568  0.1503  0.1765 -0.0637
35735W        W66951   2.413  23.790   8.494 -0.1901 -0.0919 -0.1701
35736W        W66952  21.294  25.380   1.822 -0.0002 -0.2265 -0.1384
35737W        W66953   8.943  17.131   2.155  0.1004 -0.2297  0.3246
35738W        W66954  15.635  12.288   7.686  0.2515  0.0349  0.1341
35739W        W66955  25.059  10.017  10.333  0.0868 -0.3607 -0.3715
35740W        W66956  23.885  16.441   0.743  0.1237  0.3175  0.0193
35741W        W66957   0.996  22.085   0.970  0.0273 -0.3266 -0.2618
35742W        W66958   7.288   7.263   9.470  0.0090 -0.1419 -0.4099
35743W        W66959  20.062  15.986   0.214  0.3250 -0.0658  0.1933
35744W        W66960   4.174  26.645   8.382 -0.1186  0.1589  0.0624
35745W        W66961   7.882  27.287   9.743 -0.2611 -0.1848  0.0797
35746W        W66962  15.663   6.708   8.461  0.0877 -0.0386  0.1578
35747W        W66963   2.432   8.357   0.176  0.1264 -0.4157 -0.0859
35748W        W66964  13.412  13.298   8.232 -0.2517 -0.1433  0.4894
35749W        W66965   8.099  26.073   1.391  0.0048 -0.1561  0.0608
35750W        W66966  11.199  15.357   8.831 -0.2067  0.0217 -0.0939
35751W        W66967  20.055  17.439   2.726 -0.0430  0.0160 -0.0519
35752W        W66968   6.534   9.863   7.252 -0.1010 -0.1154  0.0028
35753W        W66969   2.338  11.442   7.605 -0.2369  0.1504 -0.2008
35754W        W66970   1.465   6.705   9.598 -0.0300  0.1203 -0.0547
35755W        W66971  22.763  26.526   2.612 -0.0007 -0.0392  0.1066
35756W        W66972   5.465   0.914   9.424  0.1376  0.2682  0.0276
35757W        W66973  11.305  10.333   9.016  0.0106 -0.2225  0.1379
35758W        W66974   1.373   9.418   9.762 -0.1684 -0.0758 -0.0231
35759W        W66975  12.894  10.677   8.971 -0.1008 -0.1997  0.0371
35760W        W66976  19.722  26.117   1.627  0.1561 -0.2247 -0.1216
35761W        W66977  24.178  21.977   0.300 -0.0323  0.1705 -0.1158
35762W        W66978  15.270   6.083   0.382 -0.0634  0.0403  0.1972
35763W        W66979  14.585   9.018   3.101 -0.0825 -0.3914 -0.2948
35764W        W66980  20.432  17.020   3.405  0.1837 -0.3246  0.0396
35765W        W66981  20.322  14.810   2.129 -0.0053 -0.0852 -0.2119
35766W        W66982  26.182  14.540   9.114 -0.0719  0.1542  0.1042
35767W        W66983  19.156  16.688   8.794  0.1188  0.2720 -0.2330
35768W        W66984  15.536   9.152   3.261  0.0036  0.2234 -0.1491
35769W        W66985  12.398   5.367   9.004  0.1620  0.2337 -0.3766
35770W        W66986   0.568  17.944   7.593  0.0656  0.1852  0.1171
35771W        W66987  16.065  26.565   1.802 -0.0311 -0.0822 -0.1319
35772W        W66988   9.294  24.627   1.766  0.3104 -0.1770 -0.0507
35773W        W66989  10.970   5.575   0.956  0.2007  0.1806  0.0665
35774W        W66990   5.168   0.007   1.708  0.1660  0.3985  0.1693
35775W        W66991  24.842  17.561   0.550 -0.2866 -0.2362  0.0692
35776W        W66992   1.293   2.872   0.047 -0.1684 -0.1175  0.2041
35777W        W66993  16.917  16.552   0.535  0.2935  0.0900 -0.0775
35778W        W66994  19.786  21.212   2.262 -0.0463  0.1812 -0.1182
35779W        W66995   4.929  14.471   0.234 -0.1253  0.0561 -0.1726
35780W        W66996  18.482   7.880   1.800  0.1338  0.1354  0.0320
35781W        W66997  12.848  11.779   0.053  0.2228 -0.0430 -0.1331
35782W        W66998  20.657   3.348   7.996 -0.0926  0.1339 -0.0651
35783W        W66999   0.611  13.369   1.087  0.1206 -0.0899  0.1240
35784W        W67000  18.828   2.584   8.525  0.0273 -0.3076 -0.0476
35785W        W67001   8.041  17.445   1.792 -0.0287  0.0206 -0.2549
35786W        W67002   8.365  22.612   1.701 -0.0913 -0.1239 -0.1645
35787W        W67003   7.411   3.987   1.970  0.1717  0.1865  0.6259
35788W        W67004  13.204  16.726   3.013 -0.0240 -0.4684 -0.2674
35789W        W67005   9.235   2.666   0.859 -0.2042  0.0821 -0.2383
35790W        W67006  24.026   0.445   2.478  0.1126  0.2918  0.3562
35791W        W67007   7.505  10.157   8.198  0.1412  0.2931  0.1338
35792W        W67008   3.855  11.642   0.269  0.2295 -0.0633  0.1047
35793W        W67009   5.488  14.056   7.923  0.5503 -0.0312  0.1126
35794W        W67010  24.422   3.104   2.518 -0.4101 -0.0878 -0.0341
35795W        W67011  11.998   5.075  10.143  0.0437  0.0152 -0.1013
35796W        W67012  11.088  11.397   9.129  0.0012 -0.0745  0.0433
35797W        W67013   6.461  14.660   8.061  0.0700 -0.0986  0.3090
35798W        W67014  21.389  18.497   0.541 -0.3108  0.1739  0.0356
35799W        W67015   3.286  22.954   3.666  0.1029 -0.0115  0.2902
35800W        W67016  19.613   5.251   8.568 -0.1581 -0.2222 -0.1580
35801W        W67017  10.459   9.728   8.628 -0.1524  0.2146 -0.1164
35802W        W67018   4.990  14.095   7.092  0.0011  0.1645  0.0173
35803W        W67019  19.374  27.532   9.085  0.2078  0.1560 -0.1102
35804W        W67020   3.021  16.383   9.933 -0.3272 -0.2203  0.2175
35805W        W67021  14.204  13.428   3.068  0.0512  0.1350 -0.2387
35806W        W67022  22.705   5.646   0.353 -0.1493  0.1972  0.0018
35807W        W67023   4.950  25.818   0.865  0.1268 -0.0920 -0.0453
35808W        W67024   3.289  12.187   9.985 -0.3718  0.0670  0.1251
35809W        W67025  20.067   7.422   8.947 -0.1807 -0.2738  0.3641
35810W        W67026  19.580  23.016   3.507 -0.0065 -0.1231 -0.1450
35811W        W67027  16.897   0.885  10.541 -0.0809  0.1011  0.0275
35812W        W67028  19.076  16.616   0.945 -0.0225 -0.3291 -0.0916
35813W        W67029   5.899   0.636  10.432  0.0762  0.1210  0.3300
35814W        W67030  10.548  14.183   2.292 -0.0866  0.0495 -0.2383
35815W        W67031  14.632  22.984   1.502  0.3390  0.1198 -0.1850
35816W        W67032  11.424   9.048   1.890 -0.3471  0.1781 -0.0892
35817W        W67033  16.446   9.945   0.205 -0.2210  0.0073 -0.0706
35818W        W67034  26.659  25.198   9.973  0.2638  0.0124 -0.1167
35819W        W67035  12.708  20.417   8.309 -0.0355 -0.1058  0.0510
35820W        W67036  17.744  14.474   9.867  0.5741  0.1314  0.4104
35821W        W67037  10.347  11.132  10.505 -0.0487  0.0945 -0.0587
35822W        W67038  26.104  17.547   0.867 -0.4645  0.1331  0.2760
35823W        W67039  11.416  11.042   9.506 -0.1565 -0.1782  0.0325
35824W        W67040  13.795  27.420   1.386 -0.1360 -0.0010  0.0594
35825W        W67041  11.190  13.908   1.579 -0.0721 -0.0816 -0.1718
35826W        W67042  23.451  10.958   8.499  0.2330 -0.0254 -0.1622
35827W        W67043  12.524  14.274   1.358  0.0858 -0.1465 -0.3021
35828W        W67044   9.746   6.677   8.715  0.1366  0.2734  0.0630
35829W        W67045  11.598  27.455  10.446  0.0829  0.2834  0.2749
35830W        W67046   8.557  13.126   1.566  0.3054  0.0089 -0.0905
35831W        W67047   6.170   9.966   8.301 -0.1505 -0.1045 -0.0742
35832W        W67048   3.016  24.508  10.192 -0.0327  0.1393  0.1301
35833W        W67049  17.912  18.792  10.146 -0.1785  0.6000 -0.0188
35834W        W67050  26.377  21.554   9.913 -0.2043 -0.0763 -0.0070
35835W        W67051  17.363  26.429   1.261 -0.4114 -0.1289  0.3860
35836W        W67052   0.550  19.665   0.967  0.0290  0.1203 -0.2940
35837W        W67053   0.275  14.641   1.667  0.3268 -0.2299 -0.0481
35838W        W67054  17.695  23.821   9.062 -0.0315  0.1400  0.2909
35839W        W67055  22.524  26.550   0.110  0.0451  0.0880  0.1679
35840W        W67056  15.560   9.032   0.874 -0.0278 -0.2322 -0.0950
35841W        W67057  27.375  19.216   3.751 -0.1464 -0.2804 -0.5018
35842W        W67058  24.458  18.982   0.416 -0.0519  0.1917 -0.0030
35843W        W67059  26.282   0.232   1.306  0.2018 -0.1791  0.0658
35844W        W67060  13.369   0.284   8.027 -0.0701  0.1112  0.0346
35845W        W67061  17.395  26.780   9.043  0.3273  0.1857  0.2554
35846W        W67062  26.313   8.164   8.982  0.0464  0.1164 -0.1603
35847W        W67063  23.160  21.476   2.454  0.2034 -0.4027 -0.1308
35848W        W67064  13.914  10.814   0.951 -0.2165 -0.0032 -0.2134
35849W        W67065  14.026  10.236  10.222  0.0521 -0.0867  0.0584
35850W        W67066  14.586  11.582   9.816  0.2600 -0.0234 -0.4897
35851W        W67067   5.038  14.494   7.364  0.0092  0.1539  0.0848
35852W        W67068  17.028   5.312   1.577 -0.2927  0.0102  0.0341
35853W        W67069   6.666   8.176   1.728 -0.0826 -0.0737 -0.1522
35854W        W67070   5.815   2.192   2.594  0.1607  0.0081  0.0847
35855W        W67071  20.355  19.317   7.597  0.0520  0.0743 -0.1179
35856W        W67072  17.625  26.639   2.214  0.1518 -0.1858 -0.0655
35857W        W67073   4.984  19.247   1.273  0.1883 -0.4532 -0.2620
35858W        W67074   7.987  21.456   8.223 -0.0486 -0.1046 -0.0541
35859W        W67075  22.792  24.929   2.597 -0.0791 -0.2291  0.1402
35860W        W67076  11.140  26.292  10.363  0.2543 -0.2768  0.1218
35861W        W67077  22.969  26.466  10.469 -0.1436 -0.1114 -0.1712
35862W        W67078  23.198  16.578   9.769 -0.5006  0.0209  0.3188
35863W        W67079   3.878  21.193   1.767  0.0923  0.2414 -0.1295
35864W        W67080   2.054   4.646   3.889  0.1060  0.0859  0.5156
35865W        W67081  16.835  23.652   8.245 -0.0517  0.0089 -0.2355
35866W        W67082  11.833   4.724   8.001  0.0933  0.2343 -0.0815
35867W        W67083  21.050  25.190   3.459 -0.2545  0.1225 -0.0832
35868W        W67084  25.562   7.279   2.678  0.0959  0.2140  0.1342
35869W        W67085  21.672  13.094   9.190  0.1365 -0.0615  0.2975
35870W        W67086   5.454  26.828   3.433 -0.0395  0.2647  0.1320
35871W        W67087  25.543   2.674   9.019 -0.0236  0.1500  0.0234
35872W        W67088   7.420  21.248   1.290 -0.2113  0.3256 -0.0347
35873W        W67089   7.512  25.172   8.716 -0.0904  0.0333 -0.0430
35874W        W67090   3.321  16.758   7.899  0.1721  0.1283  0.1144
35875W        W67091  14.791  16.875   3.442 -0.2522 -0.1516 -0.4099
35876W        W67092  10.134   3.162   0.037  0.1220  0.2568  0.1477
35877W        W67093  20.739  11.986   1.964  0.2897 -0.0892  0.2126
35878W        W67094  26.372  20.705   1.649  0.0606 -0.1207  0.0227
35879W        W67095   2.739  11.475   2.616 -0.2568  0.0089 -0.1709
35880W        W67096  18.096   7.392  10.420  0.1339  0.2027  0.0196
35881W        W67097  22.502  18.109   1.116  0.0077 -0.3272  0.1949
35882W        W67098  19.616  12.062   0.458  0.2414  0.0503 -0.1949
35883W        W67099   4.225  23.140   9.093 -0.3569 -0.2120  0.1486
35884W        W67100   4.709  13.249   7.047 -0.2365  0.4103 -0.3650
35885W        W67101  20.861  11.110   0.368  0.0791  0.0165  0.2413
35886W        W67102   2.380   3.917   1.726  0.1110  0.2511 -0.0978
35887W        W67103  27.102   5.636   9.955 -0.1187 -0.2910 -0.0125
35888W        W67104   0.934  16.302   3.245 -0.0142 -0.0603  0.0455
35889W        W67105  11.032   5.429   0.012  0.1995  0.1074 -0.0705
35890W        W67106  12.973  19.748   0.987 -0.0107  0.0058 -0.2230
35891W        W67107  18.007   1.642   0.712 -0.2022 -0.0999 -0.2192
35892W        W67108  16.616   4.685   8.316  0.0540 -0.4248 -0.1237
35893W        W67109  23.350  20.984   0.212 -0.0110  0.1751 -0.1231
35894W        W67110  13.223  24.268   3.759 -0.0145 -0.2846 -0.0461
35895W        W67111  19.625  10.363   8.663  0.1436  0.0072  0.4370
35896W        W67112  19.981  17.709   7.656 -0.1739  0.0277 -0.0089
35897W        W67113  13.171  21.797   9.760 -0.0067  0.0781 -0.1390
35898W        W67114  15.911   2.819   1.003 -0.2534 -0.1988  0.1689
35899W        W67115  10.938   9.642   7.795  0.1005 -0.2595 -0.0692
35900W        W67116  17.515   6.582   9.511  0.1438 -0.1576 -0.0215
35901W        W67117  18.883   0.656   0.525  0.2034  0.1077 -0.0672
35902W        W67118  26.086   9.895   9.472  0.1432 -0.1123  0.1435
35903W        W67119  14.565  27.288   8.695 -0.1488 -0.2719  0.2592
35904W        W67120   6.076  11.381   7.869 -0.2000  0.1984  0.0664
35905W        W67121  22.683  12.880   1.009 -0.0211 -0.0129 -0.1388
35906W        W67122  19.404   0.947   1.302  0.1362 -0.5916 -0.2246
35907W        W67123  17.293  16.970   8.946 -0.0471  0.0904 -0.6330
35908W        W67124   9.872   3.270   1.369  0.0618  0.2149 -0.0253
35909W        W67125   4.761  14.401   8.378  0.0961  0.0524  0.0169
35910W        W67126  20.023  19.434   1.383 -0.2009 -0.0900 -0.2002
35911W        W67127   7.907  11.851   7.599  0.0998 -0.2800  0.2869
35912W        W67128   4.602   4.954   9.417  0.0090  0.1357 -0.1573
35913W        W67129  19.049  14.523   9.445 -0.2314 -0.1509 -0.0428
35914W        W67130  23.183  14.799   8.505  0.2467 -0.2166 -0.2329
35915W        W67131  26.336  13.693   8.907  0.0340 -0.2143 -0.0572
35916W        W67132   4.875   1.630   7.744 -0.0121  0.2480 -0.1450
35917W        W67133  24.237   1.192   1.948  0.0417 -0.1047 -0.1232
35918W        W67134  19.261  15.438   1.518  0.0262  0.0187 -0.1018
35919W        W67135  19.790  11.381   9.428 -0.2118 -0.0346  0.4301
35920W        W67136  23.274  23.940   7.207 -0.1504  0.1047  0.1993
35921W        W67137  21.445  14.043   8.937 -0.1502 -0.1042  0.2757
35922W        W67138  27.424   1.748   8.295 -0.0996  0.0913  0.0626
35923W        W67139  19.169  12.317   6.800 -0.2073  0.0971  0.2442
35924W        W67140   8.009   7.807   9.669  0.1333  0.2539  0.1038
35925W        W67141  14.280  24.761   0.519 -0.1587  0.0110  0.2772
35926W        W67142  27.420   2.449   9.950 -0.4024 -0.1031  0.0728
35927W        W67143  10.964  24.588   0.677  0.1179 -0.3015 -0.0646
35928W        W67144  21.011   2.436   8.998  0.0628 -0.0400  0.2993
35929W        W67145  17.474   2.857   7.204  0.2944  0.0436 -0.0132
35930W        W67146   1.356  15.103   3.153  0.1125  0.6508  0.0826
35931W        W67147   0.248   4.687   8.210 -0.1974 -0.1213  0.1854
35932W        W67148   8.916   8.219   9.133  0.2438 -0.0055  0.1902
35933W        W67149  12.026  26.972   9.029 -0.0209 -0.2460  0.3436
35934W        W67150  21.008  18.403   0.928 -0.1667 -0.0287  0.1151
35935W        W67151  22.510   7.423   0.215 -0.1121 -0.1408 -0.0640
35936W        W67152  19.999  12.434   1.622  0.2099 -0.3622  0.1424
35937W        W67153   0.140  15.927   0.332 -0.0838 -0.2233 -0.2978
35938W        W67154  10.713  15.825   2.367  0.1992 -0.1566 -0.0822
35939W        W67155  21.227  21.262   9.767  0.1519  0.3312 -0.0038
35940W        W67156   6.282   8.506   8.691 -0.3561  0.1954 -0.1360
35941W        W67157  27.277   6.725   1.437 -0.0272  0.1643  0.0941
35942W        W67158   2.091  15.492   9.376 -0.1714  0.2208 -0.1962
35943W        W67159   5.861  16.328   0.105  0.2376  0.2051 -0.1853
35944W        W67160  19.816  21.935   0.942 -0.0561  0.1781 -0.1492
35945W        W67161  21.931  20.011   1.026  0.2329  0.1042 -0.1207
35946W        W67162  26.866   1.331   2.473 -0.2837 -0.1364 -0.1841
35947W        W67163   0.251  11.791   2.813 -0.0070  0.0442 -0.1215
35948W        W67164  10.432  18.753   8.835  0.3295  0.0365 -0.1563
35949W        W67165   8.548   4.592   9.215  0.0920  0.1185 -0.1453
35950W        W67166  16.793  15.299   1.142 -0.3359 -0.0695  0.0598
35951W        W67167  25.579   0.967   3.151  0.2003  0.0498 -0.3854
35952W        W67168  21.750  19.858   8.309  0.1042 -0.3445  0.5195
35953W        W67169   7.680  17.082   1.967 -0.0203 -0.0732  0.0710
35954W        W67170   1.338   2.180   9.095  0.2488 -0.1993  0.4020
35955W        W67171  24.613  18.044   0.666  0.0411 -0.1561  0.0977
35956W        W67172  15.008  20.098   2.508  0.0337 -0.0444 -0.2025
35957W        W67173  22.004  10.193   3.100 -0.0774 -0.2280  0.2009
35958W        W67174  14.009  17.144   8.885  0.1519  0.4099 -0.2269
35959W        W67175  20.543   7.123   7.599  0.0373  0.1762 -0.0547
35960W        W67176   7.308   4.277   0.082 -0.2010  0.1143 -0.0934
35961W        W67177  22.892  19.118   2.456 -0.2769 -0.0779  0.2717
35962W        W67178  24.953  10.027   9.468  0.1100 -0.2356  0.0343
35963W        W67179  12.807   0.357   1.550 -0.0792 -0.1239 -0.0610
35964W        W67180  24.303   8.183   1.783  0.1299 -0.0027  0.1647
35965W        W67181   2.782  19.412  10.372 -0.0440 -0.1147 -0.5064
35966W        W67182  15.231  26.732   3.693 -0.1229  0.0038 -0.0879
35967W        W67183  25.129   3.628   1.093  0.0849  0.1551 -0.2536
35968W        W67184   7.638  21.127   9.841  0.1999 -0.0010  0.4484
35969W        W67185   3.780  25.769   7.464 -0.0413 -0.1398  0.2942
35970W        W67186  11.415  25.705   1.504 -0.1502 -0.1169  0.1203
35971W        W67187   8.860  17.544   1.317 -0.1143 -0.0850 -0.2509
35972W        W67188  19.529   6.598   1.471 -0.0138  0.2672 -0.0904
35973W        W67189  24.882  10.826   1.661  0.0524 -0.0721  0.2561
35974W        W67190   0.496   0.692   2.124 -0.1625  0.2021  0.1653
35975W        W67191   4.168  17.719   9.200 -0.4024  0.1614  0.0807
35976W        W67192  12.488  18.018   0.978 -0.0914  0.1531  0.1036
35977W        W67193   8.746  17.873   8.649 -0.0439 -0.0328  0.0864
35978W        W67194  14.670   2.222   8.724 -0.2973  0.0965 -0.1499
35979W        W67195   1.832  27.574   8.445 -0.1287  0.2070  0.0477
35980W        W67196   5.097  10.627   7.627  0.2904 -0.1364  0.2481
35981W        W67197  22.229   6.847   1.621 -0.0569  0.0691  0.3675
35982W        W67198   1.126  12.222   0.562 -0.1214 -0.1016  0.0243
35983W        W67199  23.293  19.378   7.904 -0.2685  0.4485 -0.0367
35984W        W67200   6.870   6.244   7.886  0.0202 -0.0618  0.0425
35985W        W67201  20.050   3.225   0.623 -0.1070 -0.1340  0.1819
35986W        W67202   9.289  20.750   8.547 -0.2093 -0.0309 -0.3838
35987W        W67203  14.728   3.257   8.737 -0.0108  0.1589 -0.3113
35988W        W67204  18.033  15.945   2.998 -0.1994  0.1074 -0.4790
35989W        W67205   9.798  19.088   0.818 -0.2611  0.2428 -0.2345
35990W        W67206  27.232  14.291   8.349  0.0241  0.1359 -0.0845
35991W        W67207   9.376   9.350   9.098  0.0061  0.3861 -0.0433
35992W        W67208  10.084  17.803   9.431  0.2035  0.2164  0.0817
35993W        W67209  22.824  22.222   1.136 -0.1512  0.1087 -0.0590
35994W        W67210  11.788   0.894   1.623 -0.1659 -0.2742  0.0032
35995W        W67211  18.697  18.127   8.025  0.1987  0.0258 -0.0412
35996W        W67212  11.928  24.646   3.904  0.4466 -0.2867  0.1866
35997W        W67213  10.534  23.882   7.934 -0.0779 -0.0195  0.2565
35998W        W67214  20.959   5.633   8.673 -0.0169 -0.2417 -0.3692
35999W        W67215  16.438  15.672   1.158 -0.1708  0.2654 -0.0033
36000W        W67216  25.794  20.277   1.039 -0.0981 -0.0757  0.0939
36001W        W67217  11.681  17.435   9.393  0.0955 -0.0474  0.1034
36002W        W67218   3.847  23.863   1.984  0.0795  0.0608 -0.2065
36003W        W67219  23.270   3.272  10.285  0.0805 -0.0436 -0.2345
36004W        W67220  21.328  24.758   3.101 -0.1738 -0.2599  0.1678
36005W        W67221   5.748  23.898   3.872 -0.0245  0.1527  0.0431
36006W        W67222  25.454  19.834   2.836  0.0991  0.2663 -0.0352
36007W        W67223  26.617  16.757   2.758 -0.2656 -0.1304  0.4420
36008W        W67224  10.257  15.581   1.134  0.0456  0.1724  0.1267
36009W        W67225  16.044   9.478   8.303  0.2849  0.2951 -0.2425
36010W        W67226  18.099  21.091   1.425 -0.1216  0.0247  0.0763
36011W        W67227   9.449  14.853   0.403  0.2422  0.0932  0.2011
36012W        W67228  25.588  27.441   9.569  0.1152 -0.0984 -0.2559
36013W        W67229  14.197   2.226   3.216 -0.0757 -0.1676 -0.3082
36014W        W67230   4.842  23.426   2.000  0.0696  0.2773 -0.0704
36015W        W67231  25.465   8.152   9.692  0.0176 -0.0261  0.0605
36016W        W67232   5.068   8.534   0.778 -0.1709 -0.0814 -0.0032
36017W        W67233  10.058  25.340   7.410  0.0057  0.2822  0.2722
36018W        W67234  24.144   7.522   3.266  0.0619  0.1762 -0.3773
36019W        W67235  21.293  16.801   3.196  0.2406  0.2895  0.0022
36020W        W67236  13.400  22.654   9.125 -0.0288  0.1425  0.2015
36021W        W67237   8.006   2.367   9.450  0.1915 -0.4049  0.1519
36022W        W67238  11.638  23.909   1.056  0.0257  0.2195 -0.1037
36023W        W67239   2.139  10.624  10.220  0.0757 -0.1939 -0.1656
36024W        W67240   4.837   7.083  10.205  0.0433  0.2232  0.0144
36025W        W67241  14.697   7.715   1.956  0.0210 -0.1699 -0.0141
36026W        W67242  19.167  25.919   0.880 -0.1222  0.0328 -0.3988
36027W        W67243  26.566  10.855   0.965 -0.1313  0.1635  0.0169
36028W        W67244  12.136  25.894   8.928 -0.1075  0.1969 -0.1233
36029W        W67245  26.266  26.664   7.402 -0.1840 -0.1864  0.0933
36030W        W67246  12.304  14.029   2.951  0.1583 -0.1950 -0.0458
36031W        W67247   8.037   5.553   0.033  0.1527  0.1012  0.2032
36032W        W67248  25.792   4.203   0.062 -0.0143  0.1257  0.0727
36033W        W67249  12.830  13.906   3.296 -0.3018 -0.2349 -0.2626
36034W        W67250   4.809  26.411   1.708 -0.1556  0.1400 -0.0004
36035W        W67251  22.792  16.189   7.668 -0.2214  0.1126 -0.1145
36036W        W67252   0.552  21.378  10.410 -0.0766  0.2628  0.1363
36037W        W67253   8.706  23.066   2.665 -0.1430  0.0207  0.1365
36038W        W67254  24.813  10.555   7.699  0.0474 -0.3110 -0.3567
36039W        W67255   8.589  15.845   9.846  0.0291  0.0774 -0.0254
36040W        W67256  20.314   0.486  10.536  0.0508 -0.1627  0.3113
36041W        W67257  18.977  18.096   2.608  0.3570 -0.3388  0.0594
36042W        W67258   3.383  15.122   1.403  0.0820  0.0797 -0.2190
36043W        W67259  21.177  20.090   9.212 -0.2474  0.3028 -0.1091
36044W        W67260  23.913  23.525   3.079 -0.3418 -0.2246  0.1317
36045W        W67261  11.462   7.638  10.037  0.0865 -0.5124  0.2569
36046W        W67262   5.395  13.743   9.984  0.2814 -0.0971  0.1320
36047W        W67263  24.609  24.980   1.275 -0.2530 -0.4748  0.0661
36048W        W67264  13.477  14.535   9.822 -0.0548  0.1788  0.0158
36049W        W67265  20.062   1.930   7.852 -0.3696  0.4326  0.0866
36050W        W67266   7.077  25.380   1.825  0.1022 -0.1475  0.1261
36051W        W67267   8.601  10.376   2.762  0.0984 -0.4823 -0.1104
36052W        W67268  14.161  18.644   9.441  0.3517 -0.0227 -0.2671
36053W        W67269  14.837   0.243   0.005 -0.0137 -0.1643 -0.1284
36054W        W67270   1.717   2.323   0.825  0.0686  0.1645 -0.0250
36055W        W67271  15.236   7.498   9.557  0.0018  0.1833  0.0735
36056W        W67272  16.156  22.662   1.741 -0.1201 -0.2376  0.2222
36057W        W67273  27.582  26.245   2.536 -0.1118  0.1647  0.3427
36058W        W67274   9.319   2.658  10.492 -0.2524 -0.0071 -0.0745
36059W        W67275  20.184  15.864   0.707 -0.2145 -0.1249  0.3049
36060W        W67276   4.897   9.853   8.579  0.0109 -0.0077  0.3285
36061W        W67277   8.598   7.333   0.365 -0.0164  0.0778  0.1927
36062W        W67278  23.174  23.617   9.693 -0.0337  0.0791  0.1973
36063W        W67279  23.903  21.301   3.076 -0.1252  0.2005 -0.1142
36064W        W67280  12.067  13.496   7.701 -0.4339  0.1169 -0.0735
36065W        W67281   8.086  13.357   7.101  0.1934  0.2251 -0.2193
36066W        W67282  14.791  19.732   0.281 -0.0107  0.1608 -0.0198
36067W        W67283  24.275  13.728   2.990 -0.0738 -0.1183  0.1584
36068W        W67284  11.722   4.872   8.470  0.2508 -0.0065 -0.2294
36069W        W67285  24.996  24.317   8.858  0.0774  0.0491 -0.1475
36070W        W67286  17.348  22.704   4.153 -0.2308 -0.2529  0.0672
36071W        W67287  25.678  20.463   0.616  0.1078  0.0495  0.1233
36072W        W67288  19.683  13.622   8.463 -0.3202  0.1245 -0.1722
36073W        W67289  22.364   9.332   8.615  0.2730  0.0705  0.0199
36074W        W67290   0.193  11.557   3.371 -0.0068 -0.2057  0.0008
36075W        W67291   1.523  15.996   2.775  0.2222  0.0378 -0.1998
36076W        W67292   0.157  24.530   1.697  0.2624 -0.1624 -0.2249
36077W        W67293   5.477  14.997   1.269  0.1734  0.2955 -0.0275
36078W        W67294  17.563   9.520   8.926  0.1875 -0.0221  0.3428
36079W        W67295  19.932  14.081   9.916 -0.1087 -0.3612  0.0742
36080W        W67296  11.868   7.432   9.768 -0.2480 -0.0220 -0.2198
36081W        W67297  16.548  15.654   9.091  0.3299 -0.2214  0.1694
36082W        W67298  15.938  21.422   0.143 -0.1303  0.0051 -0.2546
36083W        W67299  15.020  15.795   0.092 -0.0236  0.2711 -0.1365
36084W        W67300  12.999  13.708   7.923 -0.1931 -0.1594 -0.1094
36085W        W67301   4.496  15.717   1.044 -0.1936 -0.3450 -0.0174
36086W        W67302  24.864   5.261   3.455 -0.1636  0.0176  0.1829
36087W        W67303   4.781   6.092  10.290 -0.1141 -0.1365  0.0948
36088W        W67304  26.883  16.253   2.051  0.0104 -0.2928 -0.1819
36089W        W67305  15.793  14.389   2.443  0.0048  0.1192 -0.4397
36090W        W67306  12.667   3.448   3.314  0.1310  0.1790  0.3648
36091W        W67307  22.703   5.403   2.383 -0.0732  0.1441 -0.0534
36092W        W67308  13.407  21.045  10.342 -0.1273  0.2015  0.0022
36093W        W67309  16.890   2.483   8.909 -0.0694  0.1263 -0.1094
36094W        W67310  25.000  16.645   8.528 -0.0527 -0.1835 -0.2602
36095W        W67311   4.957   1.656   0.214  0.1889 -0.2370  0.1421
36096W        W67312  23.534   2.178   7.983  0.3968  0.2530  0.0852
36097W        W67313   4.674  15.122   0.252  0.0464 -0.0967  0.2929
36098W        W67314  10.282  26.666   8.408 -0.1959  0.2688  0.3929
36099W        W67315   8.821  12.344   1.152  0.4369 -0.1866  0.0763
36100W        W67316  21.178  13.993   0.069 -0.1154  0.1854  0.1836
36101W        W67317  22.515   7.732   8.855 -0.0023  0.0427  0.1125
36102W        W67318  17.421   3.233   1.037 -0.0142 -0.2739  0.0132
36103W        W67319  24.052  15.187   7.151  0.4309  0.2263  0.1766
36104W        W67320  20.873   1.536   8.885 -0.3175  0.0771 -0.0500
36105W        W67321   3.029   0.398   9.928 -0.1224 -0.1700  0.3798
36106W        W67322  27.584  12.996   9.430 -0.2808  0.2428  0.2942
36107W        W67323   3.787   4.990   2.263 -0.0406 -0.1270 -0.3307
36108W        W67324  23.838  17.428   8.702 -0.2228  0.0326  0.2022
36109W        W67325  19.381   9.351   3.870  0.0989 -0.3458  0.0459
36110W        W67326  14.479   8.733   9.458  0.1423  0.0192 -0.1533
36111W        W67327  16.467  20.525  10.015 -0.2370 -0.1881  0.1855
36112W        W67328  27.300  10.347   0.959 -0.2301  0.2330  0.1860
36113W        W67329  22.774  21.670   2.123  0.1605  0.4820  0.0096
36114W        W67330   6.781   8.377   9.227 -0.4303 -0.0387 -0.1711
36115W        W67331   0.953  25.992   9.097  0.2965 -0.0585  0.0606
36116W        W67332  10.185   4.597   9.127  0.1599 -0.1088 -0.0670
36117W        W67333   9.648  14.547   1.724 -0.1037  0.0401  0.2210
36118W        W67334  22.658   3.535   8.477 -0.0205  0.0973 -0.0167
36119W        W67335   6.773  17.480   7.430  0.0896  0.1899  0.1573
36120W        W67336  24.415  10.786   1.203 -0.2845 -0.2795 -0.0021
36121W        W67337   8.088  18.567   8.192 -0.0883  0.0464  0.2956
36122W        W67338  20.493  24.502   8.869 -0.1523  0.1151  0.1804
36123W        W67339   8.625  18.925   9.032 -0.0711 -0.3940  0.1404
36124W        W67340   3.356   8.804   0.422 -0.0906 -0.1247  0.0696
36125W        W67341  22.232  21.777   2.906 -0.1565 -0.0898 -0.2061
36126W        W67342   1.666  24.926   8.776 -0.4236  0.2507 -0.1491
36127W        W67343  24.163  12.026   2.278 -0.2606  0.0400 -0.0564
36128W        W67344  14.211  18.852   0.659 -0.1102 -0.2103 -0.1993
36129W        W67345  24.463  21.178   3.147 -0.0356  0.0758 -0.1539
36130W        W67346   6.177  15.355   7.595  0.1018 -0.0322 -0.1210
36131W        W67347   7.215  11.026  10.520 -0.0175 -0.0706  0.0149
36132W        W67348  16.929   5.262   2.989  0.0933  0.1869  0.2696
36133W        W67349   2.734  24.295   2.584  0.0022  0.0585 -0.0921
36134W        W67350  14.363   6.409   3.703  0.1520 -0.1231 -0.4029
36135W        W67351  15.346  27.338   8.474 -0.2102 -0.0747 -0.1802
36136W        W67352  25.609  26.838   8.312  0.2787  0.2174 -0.1614
36137W        W67353   9.680   6.906   3.411 -0.0593  0.1207  0.0388
36138W        W67354   5.299   2.283   9.556  0.0983 -0.0537  0.0937
36139W        W67355  23.441  17.782   0.127  0.3370 -0.1726  0.0113
36140W        W67356   8.847  24.405   8.902  0.0949  0.3560  0.0029
36141W        W67357   5.335  12.456   6.976 -0.0576  0.0284 -0.4742
36142W        W67358  18.568  23.783   1.714 -0.2844 -0.0395 -0.1376
36143W        W67359  11.609  19.038   8.381 -0.2187 -0.1685  0.0830
36144W        W67360  16.382  26.948   0.523 -0.2943 -0.1754 -0.0533
36145W        W67361  18.500   8.330   2.566 -0.1700 -0.0386  0.1903
36146W        W67362  20.641   8.516   9.772  0.0895  0.1937 -0.0962
36147W        W67363   6.128  14.735   1.628 -0.2538  0.3254 -0.1748
36148W        W67364  24.909  20.255   7.444 -0.1220 -0.0786  0.0505
36149W        W67365  21.065   3.190   0.284  0.3231 -0.1104  0.2330
36150W        W67366  18.872   0.540   9.881 -0.0976  0.3147 -0.1083
36151W        W67367   6.912   0.171   3.410  0.1866 -0.0978 -0.2379
36152W        W67368  25.693  22.587   8.624  0.0920 -0.0767 -0.1740
36153W        W67369   1.117  25.573   9.507  0.2493  0.3693 -0.0068
36154W        W67370  13.021  18.986   8.763 -0.2331 -0.2326 -0.1552
36155W        W67371  23.407   4.423   1.596 -0.2519 -0.2598  0.0678
36156W        W67372   6.217  24.742   2.017 -0.2321  0.2449  0.1653
36157W        W67373  21.189   5.327   8.391 -0.2395  0.4229  0.2679
36158W        W67374  19.265  22.452   8.769  0.2800 -0.0114 -0.0815
36159W        W67375   2.761   8.015   9.176 -0.1058  0.1419  0.0782
36160W        W67376   8.162  26.320   0.938 -0.1625 -0.3516 -0.0124
36161W        W67377   9.311  23.415   8.368 -0.1668 -0.2313  0.3500
36162W        W67378  11.570  17.213   3.265 -0.1152  0.4044 -0.2782
36163W        W67379  19.645   2.118   7.621 -0.1031 -0.1925  0.1663
36164W        W67380  11.351  23.766   3.080  0.0917  0.0424 -0.0049
36165W        W67381   4.667  10.821   2.558  0.2151 -0.0585 -0.1943
36166W        W67382  17.425  20.835   2.164  0.0210 -0.0295 -0.2690
36167W        W67383   0.620  18.978   3.827 -0.2146  0.1176 -0.3773
36168W        W67384   1.053  26.273   1.501  0.0182 -0.0886  0.2430
36169W        W67385  25.077  16.832   9.312 -0.0732 -0.0865 -0.1637
36170W        W67386   8.060   0.825   1.585  0.0603  0.3195  0.0895
36171W        W67387  10.719   3.260   0.724 -0.1248  0.0812  0.0493
36172W        W67388   8.496   2.239   0.773  0.1013  0.0315 -0.1193
36173W        W67389  12.869  15.394   8.757  0.1606 -0.2842  0.1843
36174W        W67390  20.465  20.258   8.215  0.1566  0.2243  0.0611
36175W        W67391  13.564  14.965   8.647  0.0705 -0.1404  0.0521
36176W        W67392  15.434  22.787   8.469 -0.1251 -0.0398 -0.1514
36177W        W67393   6.049  20.069   9.192  0.2274  0.2026  0.0384
36178W        W67394   1.976  21.870   4.191 -0.0200 -0.0301  0.1137
36179W        W67395   0.991  12.727   7.933 -0.0241 -0.0157 -0.1014
36180W        W67396   0.808   5.895  10.305 -0.0387  0.0042  0.0666
36181W        W67397   8.849   3.972   1.427  0.2446  0.2725  0.0482
36182W        W67398   5.563  24.942   9.375 -0.3092 -0.1095 -0.0718
36183W        W67399  11.990   2.965   2.699  0.0371 -0.0633 -0.2134
36184W        W67400  21.717  18.578   8.730 -0.1633 -0.0147 -0.1554
36185W        W67401  13.530  17.719   9.970 -0.1845 -0.1674 -0.1518
36186W        W67402  19.938  25.281   2.740 -0.1108 -0.1752  0.2621
36187W        W67403   4.350  27.167  10.402 -0.2901 -0.0632  0.1508
36188W        W67404  27.377   8.163   2.431 -0.1268  0.1110 -0.1947
36189W        W67405  10.504  12.127   1.372  0.0654  0.3118 -0.2478
36190W        W67406  11.798  21.744   1.347  0.2730 -0.0917  0.1379
36191W        W67407  22.336  16.925   2.547 -0.1782 -0.0525  0.2848
36192W        W67408  10.440  12.857   0.858 -0.3042 -0.0246  0.0751
36193W        W67409  22.950  10.134   8.290  0.0209  0.0525 -0.0516
36194W        W67410  17.947  25.316  10.227 -0.1563 -0.3908  0.2092
36195W        W67411   2.158   5.696   9.997  0.1905 -0.2750  0.2981
36196W        W67412  24.716   3.403   1.574  0.0070 -0.2016  0.2840
36197W        W67413  14.587   4.393   9.951  0.1047  0.2253  0.1048
36198W        W67414  17.309  16.677  10.405 -0.2125  0.1740 -0.0019
36199W        W67415   0.030   0.340   1.366  0.1809  0.0241  0.0797
36200W        W67416  21.959   2.113   9.160  0.2374  0.1985  0.1090
36201W        W67417  19.781  21.773   1.435  0.0291 -0.0078 -0.0455
36202W        W67418  10.123  14.267   2.057  0.2222  0.0359  0.0509
36203W        W67419  13.901  11.300   8.518  0.1499 -0.0713 -0.0842
36204W        W67420  19.943  23.544   0.407 -0.4249  0.2830  0.3112
36205W        W67421  26.793   2.458   8.162 -0.0672 -0.0592 -0.1432
36206W        W67422   7.591  22.004   0.925 -0.2339 -0.2126  0.1753
36207W        W67423  11.539  26.889   9.640 -0.0669 -0.2162  0.5791
36208W        W67424   9.420  23.344   2.005  0.1065 -0.1819 -0.1816
36209W        W67425  18.306  17.677   3.098 -0.0345  0.3038  0.1173
36210W        W67426   4.958   5.935   9.169 -0.0147  0.1194  0.0559
36211W        W67427  23.912  14.958   2.399  0.1237 -0.1283 -0.0740
36212W        W67428  19.236  12.534   0.917  0.2386 -0.3457  0.2493
36213W        W67429  24.748  27.539   0.520 -0.0302  0.2175  0.0552
36214W        W67430   8.309  20.406   0.227  0.2306  0.1718 -0.3040
36215W        W67431   0.804  23.554   0.712  0.0421  0.2386 -0.0932
36216W        W67432  15.512   4.091   7.603  0.0492  0.1175  0.2320
36217W        W67433  10.299  24.246   2.827  0.2818 -0.3408  0.2260
36218W        W67434   8.724  27.246   1.717 -0.1170 -0.1192 -0.0865
36219W        W67435   2.893  17.343   1.568 -0.3116 -0.1746  0.0174
36220W        W67436  19.250  18.472   0.363 -0.0195  0.0607  0.0170
36221W        W67437   8.338  18.691   8.653 -0.0610  0.0783 -0.3166
36222W        W67438   2.688  16.432   2.098 -0.0067 -0.1600  0.1330
36223W        W67439  18.981  17.847  10.105  0.0791  0.0922 -0.2300
36224W        W67440  20.419  20.057  10.499 -0.0444 -0.0614 -0.0303
36225W        W67441   2.960   6.160   3.165  0.0624 -0.0301  0.1445
36226W        W67442   4.492  20.889   7.456  0.0867  0.0148  0.4475
36227W        W67443  19.403  19.362   9.057  0.0632  0.1241  0.2224
36228W        W67444  21.748  16.736   7.769 -0.0605  0.0887  0.0711
36229W        W67445  18.068  12.507  10.538  0.1225  0.0148 -0.2271
36230W        W67446  25.580   2.702   1.937 -0.3085 -0.5896  0.0623
36231W        W67447   6.214  20.896  10.092 -0.0919  0.0864  0.1253
36232W        W67448  18.043  15.663  10.105 -0.1630  0.2372 -0.2340
36233W        W67449   9.362   8.331  10.021 -0.1415  0.1400  0.2420
36234W        W67450  10.919   5.579   1.745 -0.1117  0.1111  0.0924
36235W        W67451   3.879   0.900   9.706  0.0357 -0.3420 -0.1779
36236W        W67452  17.342  25.571   0.996 -0.4212 -0.2201  0.1963
36237W        W67453   7.223  13.821   9.945 -0.2159  0.2086  0.1739
36238W        W67454  22.028  22.867   9.015 -0.3267  0.1164 -0.2491
36239W        W67455  20.250  24.894   0.862 -0.2867 -0.0566  0.0507
36240W        W67456   2.825   8.214  10.425 -0.0154 -0.0206  0.2336
36241W        W67457  16.160   8.312   8.683  0.0865  0.1604  0.0917
36242W        W67458   2.763  22.700   2.337  0.5193 -0.0381 -0.3600
36243W        W67459  22.631   4.617   9.616 -0.0971  0.0749  0.2922
36244W        W67460  24.155   6.065   8.753  0.0322  0.0044 -0.0016
36245W        W67461  19.188  10.317   0.552  0.0216 -0.1976  0.1939
36246W        W67462  10.202  24.691   3.013  0.2811  0.0176 -0.1587
36247W        W67463  21.842   8.565   9.081 -0.0563  0.3107 -0.1456
36248W        W67464   9.359  25.010   2.656 -0.3448  0.3315 -0.2663
36249W        W67465  17.600   1.637   0.118 -0.1397  0.0824 -0.0900
36250W        W67466   2.093   8.769   3.149 -0.0207  0.1855 -0.0714
36251W        W67467   7.873  26.596   8.875  0.0205  0.1713  0.0171
36252W        W67468  15.601  15.181   2.963 -0.1210 -0.4050  0.1307
36253W        W67469  12.825  23.818   0.384 -0.2146  0.2576  0.2816
36254W        W67470   5.648   3.843   3.461 -0.2284 -0.1188 -0.2205
36255W        W67471  16.606  26.840   9.537  0.0392  0.1975 -0.2745
36256W        W67472  11.713   5.647   9.836 -0.1088 -0.2343  0.2270
36257W        W67473  14.869   6.684   2.859  0.0055 -0.0123 -0.0223
36258W        W67474  13.148  20.570   0.157 -0.0082 -0.1720 -0.3218
36259W        W67475   2.442  14.220   1.767 -0.2659  0.0542  0.1261
36260W        W67476  25.328  21.951   8.232 -0.1259  0.1298 -0.2181
36261W        W67477  26.589   5.860   3.018 -0.0436 -0.2515 -0.1486
36262W        W67478  11.578   5.943   8.492 -0.1159  0.0978 -0.0084
36263W        W67479  20.124   4.111   8.294 -0.1051 -0.1093 -0.0638
36264W        W67480   7.143  18.355  10.198 -0.3585 -0.1343  0.3784
36265W        W67481  22.106  18.384   9.035  0.3532  0.2358 -0.2122
36266W        W67482  10.973  16.128   3.020 -0.2473 -0.0293  0.2302
36267W        W67483  17.975   5.642   1.715 -0.1930  0.3627 -0.0065
36268W        W67484  23.441   0.649  10.391  0.1424  0.0480  0.1663
36269W        W67485   9.602   9.050   7.878 -0.1179 -0.0103  0.0037
36270W        W67486  12.299  23.939   3.679  0.0411  0.0660 -0.3519
36271W        W67487   6.679  22.334   2.346 -0.0547  0.0770  0.1401
36272W        W67488  21.074   3.386   3.177 -0.2146  0.3783 -0.0342
36273W        W67489  19.199  15.392   8.241 -0.0921  0.0637  0.2134
36274W        W67490   5.778  18.890   1.343  0.0765  0.1913  0.1040
36275W        W67491  27.475   8.131   3.638  0.1816  0.0355 -0.0309
36276W        W67492   5.840  13.798   2.094 -0.1860 -0.1705  0.0638
36277W        W67493   4.873   6.693   8.708  0.0452 -0.1061  0.2198
36278W        W67494  24.980  24.492  10.145  0.3135 -0.0945  0.1590
36279W        W67495   4.259   3.886   8.352  0.0192  0.0686 -0.2113
36280W        W67496  10.831   5.322   7.560 -0.5995  0.0583  0.1070
36281W        W67497  17.126   3.176   1.458  0.3418 -0.0995  0.2603
36282W        W67498  13.564  26.462   9.737  0.0135 -0.0759 -0.2883
36283W        W67499  24.255  13.054   2.317  0.0987 -0.1777  0.1789
36284W        W67500  15.159  27.203   3.426 -0.3019  0.1620  0.0791
36285W        W67501  13.051   4.198   9.276 -0.0635  0.0732 -0.0486
36286W        W67502  16.262  22.176   8.363  0.2137 -0.0631 -0.0416
36287W        W67503   1.699  10.368  10.074 -0.3349  0.0585  0.0853
36288W        W67504  11.797  21.718   0.651 -0.1502 -0.1778  0.0723
36289W        W67505  14.570  13.760   9.375  0.1981  0.2060 -0.1522
36290W        W67506   3.895  16.041   7.716 -0.0655 -0.0548 -0.0025
36291W        W67507   6.998   6.185   9.237 -0.1921  0.0539 -0.1108
36292W        W67508  14.405   2.525   2.841  0.1236  0.2507 -0.1887
36293W        W67509  11.429   1.138   0.773  0.2007  0.1113  0.1034
36294W        W67510   6.644  25.507   2.051 -0.1489 -0.0483  0.0068
36295W        W67511   5.096  21.787   1.848  0.0402  0.0006 -0.2885
36296W        W67512   0.904  13.247   9.345 -0.0930 -0.1544 -0.2071
36297W        W67513  14.179  25.736   8.155 -0.2538 -0.1874  0.1648
36298W        W67514  21.019  13.205  10.052  0.2186  0.0305 -0.2167
36299W        W67515  13.561   3.064   0.316 -0.3322  0.0675 -0.2701
36300W        W67516  21.707  17.353   2.384  0.3627 -0.1008 -0.3124
36301W        W67517  14.479   8.234   0.998 -0.0559 -0.1250 -0.1656
36302W        W67518  25.909  21.537   2.385  0.1556 -0.2691 -0.0643
36303W        W67519  16.427  14.878   9.756  0.0114  0.0581  0.3761
36304W        W67520   7.527  27.323   8.582  0.1236  0.5916 -0.0611
36305W        W67521   6.981  18.019   9.383 -0.0333 -0.0815  0.2134
36306W        W67522  26.314   3.356   8.098 -0.3354  0.1829 -0.0183
36307W        W67523   2.136  21.126   0.616 -0.0723 -0.0481 -0.0298
36308W        W67524  16.735  11.844   9.080 -0.0743 -0.1043  0.0545
36309W        W67525  11.254  14.912  10.119  0.0828 -0.1889 -0.2330
36310W        W67526  23.668   3.550   1.586 -0.2146 -0.1639  0.0111
36311W        W67527  11.955  16.986   8.128  0.0407  0.0291  0.2222
36312W        W67528   2.650  18.303  10.122 -0.1737 -0.0195  0.0074
36313W        W67529  27.251   8.012   8.918  0.3298  0.2793  0.2079
36314W        W67530   9.127   9.372   7.999  0.0230  0.3522  0.1338
36315W        W67531  24.412   6.922   0.985  0.2603  0.1510  0.3399
36316W        W67532   1.830   3.330   1.635 -0.1609  0.0128 -0.1687
36317W        W67533   3.342  17.488   1.801  0.0226 -0.0631 -0.1535
36318W        W67534  17.911   9.360   3.278 -0.3731 -0.1280 -0.0308
36319W        W67535  17.414  25.528   0.029 -0.1400 -0.1622 -0.0060
36320W        W67536   9.171  12.565   7.569 -0.1645 -0.3328 -0.4144
36321W        W67537  16.940  24.421   9.205 -0.1255  0.0026 -0.1390
36322W        W67538  19.186  27.034   9.335 -0.1903 -0.2002 -0.0462
36323W        W67539  23.055   2.540   1.101  0.1500 -0.0860 -0.2333
36324W        W67540  18.925  22.264  10.321  0.1869 -0.0676 -0.0492
36325W        W67541  10.490   3.119   1.773  0.3542 -0.0536  0.0774
36326W        W67542  20.634  15.735   7.972  0.4010  0.3221 -0.0214
36327W        W67543  17.347   6.770   0.622 -0.1082 -0.0176 -0.1210
36328W        W67544   8.806   8.824   1.946 -0.0082  0.0576 -0.2185
36329W        W67545  21.725  14.786   9.187 -0.3865  0.1019  0.3481
36330W        W67546  12.823   9.469   1.813 -0.2369  0.2192  0.2750
36331W        W67547   8.784  24.810   1.453 -0.1367  0.0991  0.0048
36332W        W67548  12.087  19.068   7.385 -0.3037  0.0115 -0.1139
36333W        W67549   6.539  12.049   9.991  0.0559  0.0507 -0.1806
36334W        W67550  17.589  15.402   8.530  0.0685 -0.2161 -0.0563
36335W        W67551   5.265  16.823  10.201  0.2790 -0.1866  0.2040
36336W        W67552  18.486   1.896   1.421  0.0033 -0.0385  0.0135
36337W        W67553  21.808  22.138   1.475  0.2958  0.2900  0.1528
36338W        W67554   2.004   4.710   2.093  0.1690 -0.0952  0.0933
36339W        W67555  22.336  26.204   1.969  0.2442  0.0873  0.1839
36340W        W67556  12.064   6.616   0.302  0.1524  0.1657  0.0445
36341W        W67557  20.408  27.464   2.100 -0.0255 -0.0208 -0.0101
36342W        W67558  17.215  24.445  10.478  0.2924  0.2112 -0.2890
36343W        W67559  11.772  19.284   7.972 -0.0624  0.1026  0.1675
36344W        W67560  24.992   9.467   1.795 -0.0109 -0.2968 -0.0594
36345W        W67561   2.594   8.672   8.757  0.0322 -0.1645  0.0533
36346W        W67562  12.443  11.854   8.074  0.0341 -0.3090  0.1036
36347W        W67563   5.867   0.515   2.758  0.3534 -0.0254  0.1826
36348W        W67564   2.682  14.244   0.985 -0.3642 -0.0994 -0.4631
36349W        W67565  21.956   0.088   0.493  0.1011 -0.1640 -0.0093
36350W        W67566  10.555   2.570   2.349 -0.0825  0.0254 -0.1629
36351W        W67567   7.930  25.712   9.969  0.1325  0.0126  0.0945
36352W        W67568   4.730   0.424   1.641  0.0221 -0.0575 -0.0618
36353W        W67569  20.132  20.975   2.629 -0.4251  0.2413 -0.0749
36354W        W67570  22.536   9.661   9.559  0.1152  0.0943  0.1212
36355W        W67571   1.285  22.951  10.519 -0.0307  0.0382 -0.4210
36356W        W67572  21.451  17.750  10.336 -0.1654 -0.0242 -0.0083
36357W        W67573  10.215  11.548   2.594 -0.0801 -0.0955  0.0383
36358W        W67574  17.853   9.608   9.804  0.0846 -0.2950  0.0364
36359W        W67575  24.702  26.943   9.971  0.1552  0.1955  0.0623
36360W        W67576   0.326  24.892   8.625  0.0233  0.0794 -0.0762
36361W        W67577   7.662  13.935   1.315  0.2090  0.1921  0.0137
36362W        W67578   8.825  16.853   0.802 -0.2011 -0.0404 -0.1242
36363W        W67579  17.277  19.583   8.769 -0.0213 -0.0067  0.1083
36364W        W67580  16.070  26.770  10.441  0.1039  0.0857 -0.3460
36365W        W67581  25.596  21.710   1.405 -0.0935 -0.3362  0.0235
36366W        W67582  20.303   7.754  10.524  0.1745  0.0441 -0.2794
36367W        W67583  20.821   4.238   2.466  0.0777  0.1753  0.3579
36368W        W67584   5.718   0.578   3.583 -0.1245 -0.0348  0.0551
36369W        W67585  23.023  15.922   8.055 -0.1128  0.3162  0.0572
36370W        W67586   0.779  26.471   2.969  0.0320  0.1635 -0.1391
36371W        W67587  24.393   5.929   2.111 -0.3772 -0.0747 -0.3072
36372W        W67588  16.128  12.723  10.316  0.1635 -0.0743  0.0114
36373W        W67589   6.420  23.489   3.163  0.1453  0.1015 -0.2514
36374W        W67590  19.727  12.696   8.965 -0.1920 -0.1822 -0.2231
36375W        W67591  19.161  12.960   2.264 -0.3539  0.0229 -0.2517
36376W        W67592  18.294   6.369   2.331 -0.2018  0.1290 -0.3387
36377W        W67593  24.326  25.022   2.626  0.1774 -0.0199  0.3532
36378W        W67594   9.953  19.952   2.278 -0.0286  0.4295  0.1998
36379W        W67595  24.606  21.667   0.284 -0.1605  0.0098  0.0983
36380W        W67596   9.453  19.697   2.503 -0.0770 -0.4651 -0.0782
36381W        W67597  14.857   2.235   2.568 -0.2562  0.1552 -0.0221
36382W        W67598  23.377  17.961   9.815 -0.0683 -0.2874  0.1680
36383W        W67599  12.765   6.047   9.699  0.1280  0.0465 -0.3196
36384W        W67600  10.654  21.472   3.243 -0.2129  0.1051  0.2091
36385W        W67601   1.202   1.176   0.128  0.0770 -0.0585  0.1040
36386W        W67602  19.751   0.009   7.994 -0.0796  0.2472 -0.1190
36387W        W67603  14.720  11.060   1.446 -0.0633  0.0448 -0.0065
36388W        W67604   9.433  25.586   1.412 -0.2637  0.3354  0.1976
36389W        W67605  23.090  23.066   1.845 -0.1218  0.1511  0.1502
36390W        W67606  25.356   2.586  10.367  0.0081 -0.0077 -0.0729
36391W        W67607  12.247   6.835   3.671 -0.1040 -0.3079  0.3646
36392W        W67608   7.259  15.995   9.103 -0.0920  0.0872  0.1214
36393W        W67609   0.489   2.018   2.957  0.2316  0.0456 -0.2319
36394W        W67610  18.441  10.497   2.424 -0.0651 -0.1212 -0.3804
36395W        W67611   2.605  21.204   1.316 -0.0224  0.1191  0.1728
36396W        W67612  12.183   9.521   2.312  0.0827  0.1398 -0.0558
36397W        W67613  26.361  23.713   8.186 -0.1055 -0.0677  0.2185
36398W        W67614  17.888  22.052   3.083  0.0959  0.1210 -0.0896
36399W        W67615  20.104  10.725   8.218 -0.1109 -0.1398  0.0710
36400W        W67616  16.875  14.716  10.068  0.1445 -0.4878  0.0779
36401W        W67617  17.664  22.516   9.720 -0.0243 -0.1293  0.0627
36402W        W67618  13.063  14.392   2.209  0.1312  0.1691 -0.0716
36403W        W67619  18.572  25.524   1.238 -0.1199  0.0225  0.3656
36404W        W67620   7.282  18.272   9.716 -0.2978 -0.0808  0.0978
36405W        W67621  18.600   2.563   2.460 -0.1782  0.3895  0.1310
36406W        W67622  26.532  26.811   0.784 -0.3106  0.2950  0.0823
36407W        W67623   0.251   1.662   1.973  0.0895 -0.4044  0.1089
36408W        W67624  17.273   4.864   9.056  0.1923 -0.0821  0.0516
36409W        W67625  16.107  10.641   9.750 -0.2074 -0.3245  0.1190
36410W        W67626   4.284  19.619   9.341  0.0703 -0.0804 -0.0995
36411W        W67627  13.885  10.726  10.140 -0.0779  0.3041 -0.2027
36412W        W67628   9.642   9.011   3.221 -0.2142  0.3317  0.0254
36413W        W67629  12.764  26.881   3.845  0.0966 -0.0701  0.1228
36414W        W67630  22.465   9.147   1.431 -0.0612 -0.0391 -0.3598
36415W        W67631   0.195  15.343   9.644  0.0598  0.0411  0.2644
36416W        W67632  25.836  25.346  10.208  0.0848 -0.3074 -0.1751
36417W        W67633   2.092  13.195   8.046 -0.0954  0.1902 -0.0893
36418W        W67634  26.445  10.202   0.445 -0.0298  0.0811 -0.2454
36419W        W67635  21.611  15.805   0.048 -0.1893 -0.2781 -0.0947
36420W        W67636   5.137   5.452   8.847  0.1437 -0.1050  0.1339
36421W        W67637   3.995   5.645   0.986 -0.2009  0.0363 -0.2109
36422W        W67638  24.744  20.651   8.967  0.0299 -0.0728  0.0869
36423W        W67639   1.651   9.682   1.789  0.0616  0.0224  0.1893
36424W        W67640  18.870   9.053   2.991 -0.5264  0.0729 -0.0969
36425W        W67641  14.575  14.657   0.447 -0.0316 -0.0216  0.0424
36426W        W67642  25.529  27.420   2.503 -0.0235 -0.0061  0.0346
36427W        W67643   4.272   0.546   8.822  0.1893  0.1373 -0.2076
36428W        W67644  14.773   7.408   0.670  0.1524 -0.1073  0.1692
36429W        W67645   3.985   2.122   0.694 -0.1301 -0.3797 -0.1861
36430W        W67646   9.214   6.091   9.033  0.3683  0.3191  0.2871
36431W        W67647   1.843  10.522   7.526  0.1055 -0.0522 -0.1857
36432W        W67648  10.700  17.385  10.289 -0.0344 -0.2523  0.4152
36433W        W67649  25.220   9.125   8.145  0.1262 -0.0956 -0.0140
36434W        W67650   4.181  13.497   1.833  0.1387  0.0600  0.1664
36435W        W67651  18.833  13.009   2.686  0.0186 -0.1706  0.0021
36436W        W67652   4.554   3.414   0.446  0.2297  0.1439 -0.0157
36437W        W67653   9.673  26.824   1.665  0.2223 -0.1378  0.1731
36438W        W67654  11.102  17.904   9.396  0.1144 -0.0083  0.0101
36439W        W67655  22.306  18.814   8.910  0.0675  0.0436  0.2782
36440W        W67656  10.401  20.891   9.208 -0.0767  0.0390  0.0250
36441W        W67657  10.366  13.243   8.725  0.2260  0.0773 -0.1018
36442W        W67658   6.147   2.544   0.450  0.0702 -0.0299 -0.0907
36443W        W67659  16.700   1.563   9.811  0.1218  0.2350  0.2328
36444W        W67660   4.335  11.892   1.553 -0.0007 -0.0466  0.0740
36445W        W67661   5.869   2.663   1.749  0.1674 -0.1020  0.1041
36446W        W67662  24.287  16.852   1.820  0.0850 -0.1547 -0.0860
36447W        W67663  24.157  22.331   0.639  0.1517  0.0159 -0.0557
36448W        W67664  20.319  18.046   9.809  0.0660  0.2203 -0.1277
36449W        W67665  12.485  18.898   3.067  0.0528  0.2167 -0.0902
36450W        W67666  21.748  25.451   2.051 -0.1269 -0.1796  0.2777
36451W        W67667  17.047  10.816   8.918 -0.0740 -0.0412  0.3502
36452W        W67668  14.844  10.372  10.310 -0.1753 -0.1144 -0.1063
36453W        W67669   1.465  11.296   9.953  0.0786  0.1321 -0.2161
36454W        W67670  19.148   5.000   9.283  0.0405 -0.4283 -0.0570
36455W        W67671  11.309   4.988   7.779  0.1270  0.2094 -0.0116
36456W        W67672  22.937  17.080   2.998  0.3271  0.2616  0.1256
36457W        W67673  21.519  21.569   8.647  0.2958  0.0798 -0.0065
36458W        W67674   6.569  10.919   1.893  0.0101  0.1708  0.3646
36459W        W67675   2.280  27.367   0.730  0.2743 -0.2009  0.1559
36460W        W67676  17.183  17.258   2.217  0.5683 -0.1317  0.1281
36461W        W67677  15.033  19.342   0.453 -0.3480 -0.0443 -0.1148
36462W        W67678  11.787  16.562   8.338 -0.1406 -0.2830 -0.0702
36463W        W67679   2.979  21.382   1.602  0.0781  0.0377 -0.2673
36464W        W67680   6.113  26.563   2.094 -0.0744 -0.1516 -0.1967
36465W        W67681  11.954  19.432   0.333  0.1008 -0.0717  0.0941
36466W        W67682  16.168  21.860   4.033 -0.1819 -0.0980  0.0195
36467W        W67683   0.092   3.536   0.771 -0.0001  0.2263  0.0228
36468W        W67684   8.555  22.379   9.203  0.0372  0.2732 -0.2924
36469W        W67685   7.548  18.007   1.659 -0.0465  0.0604  0.5403
36470W        W67686   2.176  22.422   9.936 -0.0267  0.2654 -0.1458
36471W        W67687  12.475  14.707   2.116  0.0762  0.1716 -0.1051
36472W        W67688   2.615   3.662   0.497 -0.1553  0.3194  0.1537
36473W        W67689  10.222   1.938   1.308 -0.0291 -0.2495 -0.0654
36474W        W67690  15.970   7.095   9.790  0.0964  0.1941  0.1245
36475W        W67691   4.111   8.690   8.123  0.0240  0.0008  0.0740
36476W        W67692  23.050  17.909   1.871 -0.0357  0.0255 -0.1414
36477W        W67693   0.845  15.722   9.154  0.1753  0.0012 -0.2936
36478W        W67694  23.756   6.012   9.326  0.2421  0.0214 -0.2389
36479W        W67695  14.638  24.773   1.461 -0.3837  0.1202 -0.2884
36480W        W67696  18.912  11.104   9.788 -0.2421  0.0341  0.2496
36481W        W67697   2.549   1.911   2.415  0.2867  0.0851  0.0633
36482W        W67698  19.797   9.517   9.062  0.1777  0.3126 -0.0441
36483W        W67699   4.776   3.380   2.031 -0.0573 -0.2083 -0.1743
36484W        W67700  19.232  23.194   2.006  0.1933  0.0034  0.0142
36485W        W67701  18.435   0.791   1.399  0.2496  0.0964 -0.0235
36486W        W67702  27.028   8.390   3.749 -0.0513 -0.2151  0.1678
36487W        W67703  16.277  27.124   1.074 -0.2930 -0.0709  0.0283
36488W        W67704   0.062  11.789   1.564 -0.2526 -0.1629 -0.0492
36489W        W67705   2.433  17.590   0.884 -0.0840  0.2484 -0.0273
36490W        W67706  20.321   4.981   9.149  0.0458  0.2664 -0.0705
36491W        W67707   3.742  18.350   2.447  0.0450  0.1099 -0.0663
36492W        W67708  17.935   5.289   9.412  0.0576 -0.1217 -0.3837
36493W        W67709   6.912   8.726   0.833  0.1782  0.0698 -0.1683
36494W        W67710  27.398  12.103   9.246  0.2206  0.0279 -0.1653
36495W        W67711   9.305  19.130   3.434  0.0166 -0.2326  0.3391
36496W        W67712  25.689   1.438   3.082  0.0235 -0.0094  0.1917
36497W        W67713  13.785  18.593   2.699 -0.2358  0.0792 -0.0004
36498W        W67714  13.086  15.834   8.760 -0.0048  0.2002 -0.0490
36499W        W67715  13.614   0.192   9.918  0.1251  0.0943 -0.0754
36500W        W67716  14.640   8.600   2.299  0.2884 -0.0786 -0.2177
36501W        W67717  11.855  17.690   3.118  0.0114 -0.4906  0.2288
36502W        W67718  22.334  10.718   1.555 -0.0404 -0.0424 -0.1178
36503W        W67719  26.342  15.293   9.366  0.1562 -0.2529 -0.0243
36504W        W67720   3.453   5.726  10.007  0.2247  0.2217  0.0347
36505W        W67721   4.604  19.357  10.365  0.3834 -0.2646  0.1738
36506W        W67722  16.191  16.428   9.997 -0.2230  0.1250  0.1820
36507W        W67723  27.003   1.968   7.993 -0.3829  0.0663 -0.0582
36508W        W67724  22.483   5.358   9.227 -0.1714 -0.0565  0.0344
36509W        W67725  19.996   7.064   1.028 -0.3125  0.0819 -0.1562
36510W        W67726   3.879  10.893   2.910 -0.0556 -0.0060 -0.2978
36511W        W67727  18.125  20.905   1.928 -0.1794 -0.1098 -0.0471
36512W        W67728   4.084  13.490   9.370  0.0627 -0.0955 -0.1613
36513W        W67729   3.493   4.364   1.534 -0.2232 -0.2088  0.1949
36514W        W67730  17.980   0.984  10.121  0.1154 -0.1433  0.0307
36515W        W67731   0.404  26.623   3.220  0.1617 -0.2183 -0.0690
36516W        W67732  17.348  11.768   9.485  0.1759  0.2196  0.2491
36517W        W67733  13.930   9.990   3.321 -0.4721  0.0481  0.3916
36518W        W67734  23.556  14.588   7.986 -0.5425  0.1112  0.0891
36519W        W67735   3.302  11.866   1.388  0.3593 -0.1331 -0.1374
36520W        W67736   9.207   4.992   8.902  0.0106  0.3630 -0.3972
36521W        W67737  17.526   8.903   3.025  0.1309 -0.1598  0.3078
36522W        W67738   1.497  15.253   3.757  0.2916  0.0726  0.0450
36523W        W67739   1.669  21.132   8.563 -0.3380 -0.1094 -0.2392
36524W        W67740  23.934  11.127   7.638  0.3862  0.0801  0.1169
36525W        W67741  24.913   5.098   2.528  0.2258  0.0079  0.3854
36526W        W67742  13.328   7.432   2.213  0.1044  0.0176  0.3899
36527W        W67743  13.263   6.196   1.677  0.1195 -0.1348  0.1794
36528W        W67744   5.618  15.990  10.314 -0.2375 -0.0938 -0.0078
36529W        W67745   9.838   1.795   8.103 -0.1631 -0.0223 -0.0253
36530W        W67746   3.187  16.666   0.506 -0.2800  0.0670  0.1706
36531W        W67747  22.060   9.728   2.727  0.2661  0.1044  0.0021
36532W        W67748  26.601  10.067  10.274  0.1933 -0.0045  0.0284
36533W        W67749  20.756   8.952   1.512 -0.1438  0.3260 -0.1492
36534W        W67750  14.089  10.507   9.707 -0.1218  0.0231  0.0940
36535W        W67751  26.599  12.145   1.548 -0.2824 -0.3559  0.1903
36536W        W67752  24.336   0.172  10.115 -0.4854  0.0733 -0.1482
36537W        W67753   4.220   7.586   0.350 -0.2111  0.2773  0.1391
36538W        W67754   0.221  27.040   1.299 -0.1110  0.6096  0.3412
36539W        W67755   8.117  18.539   3.832 -0.3966  0.2600  0.0910
36540W        W67756  17.143  17.174   1.491  0.2380 -0.2435  0.3036
36541W        W67757  18.383   2.967   2.204  0.1405  0.2837 -0.2077
36542W        W67758   8.214   4.609   2.516 -0.1770  0.1446  0.1341
36543W        W67759  25.183  13.056   8.399  0.0390 -0.1376 -0.0888
36544W        W67760   4.865  21.921   9.342  0.1743  0.4162 -0.5045
36545W        W67761   8.841   0.447   7.541  0.0929  0.0685 -0.2891
36546W        W67762  11.269   7.809   1.729  0.1137 -0.0639 -0.2186
36547W        W67763  26.716   3.493   3.194  0.2432  0.0272  0.1201
36548W        W67764  22.665  10.190   1.007  0.0405  0.2868 -0.1504
36549W        W67765  14.522   4.456   0.094  0.0736  0.3530 -0.2950
36550W        W67766  21.312   2.831   2.898 -0.1049  0.0986  0.1343
36551W        W67767  20.834  10.073   9.157  0.0125  0.1178 -0.1601
36552W        W67768  19.176   9.075   0.389  0.3197  0.1357 -0.2170
36553W        W67769  17.942   4.152   1.940  0.0703  0.0201 -0.0062
36554W        W67770  21.569  24.185   0.635 -0.0933 -0.3096 -0.1022
36555W        W67771  26.472  23.856   1.346  0.0506 -0.0763 -0.1985
36556W        W67772   7.818  21.512   2.602 -0.0565  0.0677  0.1155
36557W        W67773  22.149  10.066   9.241 -0.0659  0.0910  0.0412
36558W        W67774  10.393   1.116  10.255 -0.0963 -0.2805  0.0562
36559W        W67775   7.725   1.739   1.272  0.0400 -0.0168 -0.0192
36560W        W67776   3.166  12.881   0.319 -0.0595 -0.4436  0.1059
36561W        W67777  23.602  25.665   1.698  0.1880 -0.0643  0.2149
36562W        W67778   0.348   2.957   0.260  0.0253 -0.0954 -0.0052
36563W        W67779   5.466   5.541   9.777  0.0760 -0.3890  0.2965
36564W        W67780  23.406   8.779   0.773 -0.2093  0.2402  0.4586
36565W        W67781  24.902   3.938   2.902  0.0680 -0.0669 -0.2006
36566W        W67782   8.104   3.457   0.828  0.0863  0.0925  0.0602
36567W        W67783   7.666   0.034   9.443 -0.1444  0.0418  0.1336
36568W        W67784  18.656  26.647   3.540  0.2814 -0.2021  0.0237
36569W        W67785  23.927  14.649   0.111  0.4256 -0.4631 -0.0242
36570W        W67786  13.374  26.693   2.805 -0.0552 -0.0444 -0.1057
36571W        W67787  13.921   0.163   0.361 -0.0080  0.0912 -0.1779
36572W        W67788   4.996   9.749  10.442  0.1015 -0.4078 -0.0865
36573W        W67789  19.227  19.751   8.757  0.3131  0.1745 -0.0881
36574W        W67790  23.673  11.049   8.065  0.1451 -0.1747  0.1040
36575W        W67791  17.657  22.557   2.299 -0.1893  0.2160  0.2125
36576W        W67792  25.121  24.917   8.271  0.1517 -0.0094  0.0322
36577W        W67793  16.242  20.402   9.225  0.1883 -0.0992 -0.0939
36578W        W67794   2.791  19.000   3.080 -0.2599 -0.1521 -0.3329
36579W        W67795  21.222  21.863   0.993 -0.2916  0.1389 -0.2778
36580W        W67796  26.815  20.127  10.199  0.1332  0.2910  0.6664
36581W        W67797   7.815  15.980   1.404 -0.2969  0.0398  0.0821
36582W        W67798   1.009   6.795   8.964 -0.1897 -0.3052  0.1667
36583W        W67799  20.440  26.939   7.599 -0.1602  0.3785  0.2887
36584W        W67800  23.540   0.746   2.600  0.1593 -0.2108  0.2096
36585W        W67801  15.645  25.326   1.963 -0.2002  0.1637 -0.0992
36586W        W67802   3.667   3.030   0.728  0.3979  0.0540 -0.0334
36587W        W67803  18.051  15.307   7.972 -0.1730  0.2058 -0.0221
36588W        W67804  21.164  27.221   1.971 -0.2403 -0.1392  0.4346
36589W        W67805  10.713  24.864   9.826 -0.2219  0.2404  0.2695
36590W        W67806   0.533  26.131   2.697  0.0961 -0.0374 -0.2524
36591W        W67807  19.543  18.875   7.417  0.1751 -0.0637  0.2838
36592W        W67808  11.753  21.868   8.192 -0.1714  0.0621  0.0120
36593W        W67809   2.282  24.113   2.662  0.3506  0.0361 -0.0083
36594W        W67810   1.645   6.397   0.004  0.0859 -0.2350  0.1883
36595W        W67811   8.836   7.721   3.020 -0.0883 -0.1692  0.0578
36596W        W67812   6.340  12.132   1.173 -0.1010 -0.0418 -0.0626
36597W        W67813  24.341  12.036  10.121 -0.1007 -0.3292  0.0202
36598W        W67814  12.028  13.302   8.656  0.0254  0.1815  0.0809
36599W        W67815  17.839  14.991   8.989 -0.2971  0.0367 -0.0523
36600W        W67816   9.791   3.178   8.614 -0.0994  0.1798  0.0164
36601W        W67817  11.233   5.681   2.773  0.3376  0.0540 -0.1232
36602W        W67818   9.905  27.184   0.918 -0.3955  0.0005 -0.0965
36603W        W67819   6.290  25.711   2.320  0.1131 -0.1578 -0.0963
36604W        W67820  13.032   7.793   0.264 -0.3219 -0.2071  0.1555
36605W        W67821   4.472  13.369   9.662 -0.1123 -0.0148  0.3499
36606W        W67822   2.046  11.772   8.814 -0.2770 -0.1693 -0.2606
36607W        W67823   5.865  18.001   2.876 -0.1087 -0.1941 -0.1571
36608W        W67824  17.203  12.556   1.796 -0.0054  0.0254 -0.2819
36609W        W67825  20.537   8.626   0.569 -0.0131  0.1479 -0.1250
36610W        W67826  15.137  19.341   1.781  0.0094 -0.0934  0.0759
36611W        W67827  26.744   7.691   9.791 -0.0720  0.0727 -0.1290
36612W        W67828  24.129  19.236  10.086  0.0742  0.0332  0.0146
36613W        W67829  15.003  17.661  10.370  0.2641  0.1472  0.0795
36614W        W67830   5.927   1.612   1.881 -0.0980 -0.1531  0.1991
36615W        W67831   3.616  15.085   7.666 -0.1791  0.2618  0.1103
36616W        W67832  13.217   6.647   3.667  0.1464 -0.0146 -0.1382
36617W        W67833  23.550   2.596   1.295  0.0854 -0.0422 -0.1021
36618W        W67834   0.262  18.584   8.553 -0.0019  0.1506 -0.2644
36619W        W67835  10.360   4.923  10.403 -0.0249 -0.3109 -0.3235
36620W        W67836  11.031  22.797   3.389  0.1536  0.2031 -0.1410
36621W        W67837  20.373  18.592   7.122 -0.4252 -0.5868  0.0873
36622W        W67838  18.976  26.475   2.604 -0.0101  0.0892 -0.0268
36623W        W67839  23.334  12.871   3.739 -0.0786  0.1707 -0.0764
36624W        W67840   3.493  24.306   2.761  0.2168 -0.0543  0.0046
36625W        W67841  19.927   6.529   9.486 -0.2337 -0.1304  0.3506
36626W        W67842  12.599  15.955   2.913  0.2009  0.0859  0.2027
36627W        W67843  27.297  22.220   0.300 -0.2822 -0.0618 -0.1474
36628W        W67844   0.115  14.244   9.968 -0.6203  0.0653  0.0119
36629W        W67845  23.252  16.857   0.201  0.0211  0.0733  0.0772
36630W        W67846  23.061  20.476   9.086  0.1863  0.0447  0.1000
36631W        W67847  10.415  24.259   0.753 -0.0553 -0.2063 -0.0044
36632W        W67848  23.190   9.043   9.120  0.1932 -0.1993  0.3706
36633W        W67849   4.365   1.422   8.435  0.2116  0.2124  0.1192
36634W        W67850   2.591  27.078   3.824 -0.0146 -0.0121  0.1385
36635W        W67851   1.105   5.530   2.703  0.0444  0.1048  0.1005
36636W        W67852   0.878  18.798   0.554 -0.0869 -0.0673 -0.0830
36637W        W67853  26.390  23.288   9.096 -0.2914  0.1243  0.1828
36638W        W67854  14.951  23.945   7.875  0.1320  0.1281 -0.1102
36639W        W67855  11.134  23.065   8.414  0.1181  0.1617  0.0413
36640W        W67856  21.686   8.594   3.679  0.0990  0.2629 -0.2511
36641W        W67857  25.586   2.973   8.063 -0.1350  0.3334 -0.0351
36642W        W67858  10.080  12.758   2.231 -0.1753  0.0224  0.2893
36643W        W67859  13.394  22.888   7.409  0.1542  0.3434 -0.1670
36644W        W67860  26.329   7.113   0.138 -0.0903  0.0589 -0.1890
36645W        W67861  24.419   5.369   9.648 -0.1837  0.2934  0.1005
36646W        W67862   7.203   0.293   2.326 -0.1177 -0.0018  0.0226
36647W        W67863   4.469   9.563   0.506  0.1182  0.1063  0.0164
36648W        W67864   7.754   8.082   2.640  0.1146  0.0783 -0.0013
36649W        W67865  19.551  10.978   7.772  0.0957  0.1355 -0.0374
36650W        W67866  26.211  22.987   9.422  0.0152 -0.1352 -0.0690
36651W        W67867   5.333  15.625  10.066 -0.1916 -0.1156  0.0892
36652W        W67868   2.536  25.087   3.211 -0.0808  0.0083 -0.0514
36653W        W67869  16.715  23.344   3.024  0.0585  0.0569  0.4118
36654W        W67870  11.674   2.222   0.165  0.2821 -0.0644  0.2002
36655W        W67871   2.414  17.102   1.657 -0.1188  0.2052  0.5239
36656W        W67872  15.547   9.665   8.224  0.0950 -0.0894  0.2428
36657W        W67873  11.531   9.328   0.524  0.3601 -0.0170 -0.0441
36658W        W67874   6.532  19.458   0.291  0.0848  0.1498  0.1277
36659W        W67875   5.425   6.309   0.377 -0.1185  0.0537  0.0943
36660W        W67876  11.727  24.134   8.217  0.0099  0.0111  0.1777
36661W        W67877  19.473  16.676  10.099  0.0907  0.4831 -0.0771
36662W        W67878  18.310  23.833   0.456  0.4096 -0.0646 -0.2200
36663W        W67879  11.265  15.329   2.411 -0.2336  0.0332  0.3041
36664W        W67880   4.964   6.112   0.243 -0.4348  0.0278 -0.0057
36665W        W67881   8.919  19.837   2.352  0.2820 -0.1342  0.0727
36666W        W67882  16.548  26.442  10.346  0.0373  0.0056  0.3487
36667W        W67883  14.002   6.878   8.171  0.1544  0.4776 -0.2025
36668W        W67884  18.060  21.829   9.182  0.2555 -0.2194 -0.0517
36669W        W67885   5.055   8.053   1.472  0.1336 -0.0172  0.4373
36670W        W67886  24.724  23.789   0.146  0.0541  0.1633 -0.0461
36671W        W67887  10.281  10.424   2.098 -0.0196 -0.2529 -0.0638
36672W        W67888  21.980  21.087   8.206 -0.0350  0.1482 -0.2015
36673W        W67889  10.664  16.876   8.210 -0.0326  0.1164  0.1025
36674W        W67890  20.661  22.242   9.469 -0.0430  0.2082  0.0130
36675W        W67891   3.638   8.518   9.397  0.4441 -0.0077  0.0968
36676W        W67892  12.047  27.512   1.438  0.0229 -0.2266 -0.2175
36677W        W67893  23.687   6.890   2.601  0.0511 -0.1524  0.1168
36678W        W67894  26.400  20.645   8.894 -0.1207 -0.2225  0.0226
36679W        W67895   4.195  17.646   0.177  0.1290 -0.0810 -0.2967
36680W        W67896  22.411  14.496   9.842 -0.0098 -0.2449 -0.1149
36681W        W67897  10.937  21.823   7.173  0.1045 -0.1720 -0.3070
36682W        W67898  21.139  21.516   8.924  0.0689 -0.2465 -0.1157
36683W        W67899   6.126   2.721   2.775  0.0490 -0.2792  0.0245
36684W        W67900   3.288   3.361   2.364  0.1429 -0.1434 -0.1087
36685W        W67901  11.486  23.402   8.397 -0.1817  0.0627 -0.0084
36686W        W67902   8.182  22.491   8.067 -0.1887 -0.2748  0.1200
36687W        W67903  10.430   4.617   8.639 -0.3121 -0.1434 -0.0784
36688W        W67904   2.879  10.616   1.872 -0.1055  0.1140  0.0854
36689W        W67905   6.061   8.299  10.413 -0.0649 -0.0150  0.2343
36690W        W67906  26.460  10.634  10.223  0.1641  0.4431 -0.0395
36691W        W67907  14.694  17.491   8.947  0.1213 -0.1326 -0.0405
36692W        W67908  21.680  21.957   8.431 -0.0807 -0.5230  0.2870
36693W        W67909  25.943   0.229  10.154 -0.0107  0.1243  0.0503
36694W        W67910   0.566   5.217   2.232 -0.2564 -0.0828  0.0106
36695W        W67911   6.472  15.611   2.849 -0.1482  0.1899  0.1481
36696W        W67912   2.763  21.969   0.087 -0.0438  0.0358  0.1316
36697W        W67913  22.738   6.365  10.446  0.0539  0.1469  0.2173
36698W        W67914  26.412   2.644   4.096 -0.1961 -0.0578 -0.2137
36699W        W67915  23.501  10.568  10.033 -0.1740 -0.1441 -0.0609
36700W        W67916  17.308  12.952   9.541  0.0412  0.1313 -0.2152
36701W        W67917  13.099  15.996   0.430  0.0141 -0.0849 -0.1084
36702W        W67918  25.985  15.182   2.500 -0.2291 -0.1289  0.1345
36703W        W67919  14.086   6.597   3.368 -0.0003 -0.0850 -0.1407
36704W        W67920   0.505  19.453   0.504  0.0998  0.0434 -0.1249
36705W        W67921  19.513   5.318   9.403  0.2935 -0.0680 -0.1895
36706W        W67922  11.184  20.640   2.651  0.1643 -0.2192 -0.1439
36707W        W67923  15.513  15.939  10.481 -0.1814 -0.1382 -0.0546
36708W        W67924   3.073   3.183   9.946 -0.1985  0.1047  0.2538
36709W        W67925  20.673   9.286   2.960  0.0327  0.3667  0.0593
36710W        W67926  22.570  22.592   8.884  0.1398  0.0618  0.1408
36711W        W67927  19.220  25.957  10.125  0.0222 -0.1475  0.0061
36712W        W67928  15.377  24.574   9.072  0.0136  0.1956  0.0458
36713W        W67929  17.187   5.862   2.451  0.0069  0.2236  0.1386
36714W        W67930  18.504  26.625  10.462 -0.1980 -0.1766  0.0912
36715W        W67931   2.134   9.735   0.278 -0.0180  0.1220 -0.1875
36716W        W67932   0.661  22.848   1.043 -0.1238  0.0614 -0.0252
36717W        W67933   5.707  26.086   1.342 -0.0892  0.2049  0.3445
36718W        W67934  23.881  16.842   2.538 -0.2289 -0.0897  0.1154
36719W        W67935  15.730  20.896   9.701 -0.1496 -0.3624 -0.0042
36720W        W67936  13.439   1.520   2.208  0.2714 -0.2158  0.2182
36721W        W67937  16.385  20.488   1.248  0.5953  0.0969  0.0330
36722W        W67938  23.491  20.359   9.246  0.0749 -0.3663 -0.3242
36723W        W67939   2.335   4.395   9.956  0.0516  0.4335  0.0181
36724W        W67940   3.879   4.066   2.550 -0.0644  0.1792 -0.0950
36725W        W67941  23.987  17.579  10.443  0.0626 -0.0602 -0.1758
36726W        W67942  19.463   0.445   1.358 -0.1187 -0.0963  0.0996
36727W        W67943  27.277   6.165   0.646 -0.0412  0.3046 -0.1950
36728W        W67944  13.887   9.353   1.460 -0.2737  0.1570  0.0923
36729W        W67945   5.189  14.893   8.411  0.0562 -0.3347  0.1465
36730W        W67946  18.530   2.600   3.104 -0.2171  0.1450  0.1813
36731W        W67947  19.983  25.340   7.689 -0.2463  0.3333 -0.0651
36732W        W67948  19.997  27.287   2.306  0.4452  0.0592 -0.3294
36733W        W67949  14.844  21.561   8.767  0.3006 -0.0775  0.0681
36734W        W67950  14.003  12.050  10.306 -0.0516 -0.1579 -0.0993
36735W        W67951   1.203   6.562   0.192 -0.1063  0.1479 -0.3820
36736W        W67952  17.569  18.126   2.679  0.2765  0.0471  0.1265
36737W        W67953  17.172   6.671   9.050 -0.1162 -0.1217  0.1829
36738W        W67954   5.567  10.443   9.062  0.4940  0.1274 -0.1708
36739W        W67955  15.670  22.370   8.537 -0.0258  0.3652  0.1631
36740W        W67956  25.298  24.164  10.012  0.0984 -0.0872 -0.0676
36741W        W67957  21.254  24.828   1.827 -0.0231  0.2336 -0.1324
36742W        W67958  15.053  11.850   2.147 -0.1412 -0.2275 -0.2297
36743W        W67959  23.185  12.738   9.464  0.2034  0.1551  0.1523
36744W        W67960  21.138  11.758   2.746  0.1563 -0.1986 -0.1335
36745W        W67961  23.110   8.817   9.966  0.2077 -0.1451  0.0805
36746W        W67962  13.978   5.162   3.252  0.2207  0.2635 -0.3072
36747W        W67963   6.174  15.890   2.474 -0.0906  0.0159  0.5244
36748W        W67964  18.678   8.707   7.471 -0.0408  0.0041  0.2277
36749W        W67965  25.739   9.004   7.687 -0.1711 -0.2619 -0.0252
36750W        W67966   4.277  18.102   1.989 -0.0553  0.0600  0.0631
36751W        W67967   7.358  15.539   7.779  0.3267 -0.1583  0.2236
36752W        W67968  22.064   0.249   2.699 -0.0633  0.2516  0.0660
36753W        W67969   6.457   2.495   2.463  0.2233  0.0541  0.0847
36754W        W67970  14.245   6.073   1.148  0.1207  0.0516  0.0363
36755W        W67971  23.529  22.420  10.456 -0.0164 -0.1958  0.0609
36756W        W67972  18.807   9.573   9.726  0.0572  0.0034  0.2834
36757W        W67973   4.644  12.645   0.399  0.0253 -0.4544 -0.0796
36758W        W67974  13.947  18.097   9.283  0.2814 -0.0046 -0.0703
36759W        W67975  13.751  26.143   9.411 -0.2435  0.1290  0.0672
36760W        W67976   7.256  26.025   9.482  0.1466 -0.1800  0.1103
36761W        W67977  19.649   8.196   2.402 -0.3379  0.1175 -0.1309
36762W        W67978  17.080   2.530   2.413  0.2170  0.0791  0.1311
36763W        W67979  11.097   5.128   1.983  0.1931 -0.0406  0.1340
36764W        W67980   8.720   1.907   7.823  0.0112  0.1071  0.1686
36765W        W67981  13.343   2.004   2.138 -0.1008  0.1612  0.0100
36766W        W67982  26.480  21.638   3.252  0.1159 -0.2213 -0.0318
36767W        W67983  17.234   1.243   0.026 -0.1337 -0.0332  0.1143
36768W        W67984  12.064   1.612   8.224  0.1727  0.1015 -0.3304
36769W        W67985  14.593  12.136   8.432  0.1820  0.0401  0.1714
36770W        W67986  27.319   5.607   8.550 -0.0612 -0.0642 -0.0785
36771W        W67987   4.452  14.351   0.870  0.1561 -0.0291  0.0387
36772W        W67988   8.576  20.426   9.763  0.3004 -0.4561 -0.1771
36773W        W67989   7.318  15.028   3.179 -0.0217  0.0244  0.0101
36774W        W67990  14.306   0.968  10.010 -0.0242  0.0903 -0.0302
36775W        W67991   1.673  24.380   0.404 -0.1663 -0.1505  0.0599
36776W        W67992   4.565  12.510   8.605  0.0066 -0.1121  0.1757
36777W        W67993   5.149  20.783   9.378  0.0607 -0.1793  0.0119
36778W        W67994  10.021  21.926   8.702  0.1259 -0.2046 -0.1050
36779W        W67995  25.049  10.376   8.650 -0.2552 -0.0901 -0.3086
36780W        W67996   2.882  18.848   9.361 -0.0956  0.1400 -0.0688
36781W        W67997  25.885  12.858   4.435  0.1181  0.0267 -0.4501
36782W        W67998   2.035  26.788   8.119  0.1017 -0.0213 -0.0470
36783W        W67999   5.931  16.894   7.224  0.3093  0.2421 -0.3286
36784W        W68000   4.754   2.347   1.086 -0.1873  0.1643  0.1699
36785W        W68001  13.824   9.582   2.913 -0.1520 -0.1673 -0.3339
36786W        W68002   0.999   8.250   1.348  0.1722 -0.1436 -0.1192
36787W        W68003  19.464  20.390   0.164 -0.1335 -0.3433 -0.0667
36788W        W68004  21.002   6.697  10.479 -0.0360 -0.0048  0.1688
36789W        W68005  21.711  15.225   1.316  0.0513  0.1654 -0.0354
36790W        W68006   8.590   7.314   9.141 -0.4195  0.0256  0.3569
36791W        W68007  23.996  12.426   8.306  0.2321  0.1234  0.0125
36792W        W68008   2.862   4.049   7.940  0.0705 -0.1103  0.1607
36793W        W68009  21.391  26.397   8.916 -0.1075 -0.1702  0.3294
36794W        W68010  24.198   0.197   2.922  0.4887 -0.0949 -0.2773
36795W        W68011  23.395  12.496   8.149  0.0082  0.1227 -0.3736
36796W        W68012   1.037  21.917   2.566  0.0113  0.1250 -0.2920
36797W        W68013  10.515  18.645   9.839 -0.0679  0.0441  0.4844
36798W        W68014   5.728  17.121   1.935  0.3984  0.1214 -0.2975
36799W        W68015   2.915   3.621   8.270 -0.1576 -0.2858 -0.0481
36800W        W68016  12.575   3.935   9.321 -0.1043 -0.0063  0.1482
36801W        W68017  15.682  11.102   1.882 -0.2098  0.1108 -0.1984
36802W        W68018  17.890  13.642   0.308  0.2983 -0.2466  0.2206
36803W        W68019   4.402   8.413   1.506 -0.1273 -0.1387  0.0658
36804W        W68020  24.462  21.854   2.595 -0.0946  0.3552 -0.1795
36805W        W68021   2.760   1.223   9.426  0.2451 -0.0781  0.2035
36806W        W68022  10.780   5.548   2.929  0.0017  0.1721 -0.1699
36807W        W68023   1.483  15.190   2.406 -0.1035 -0.1972  0.1522
36808W        W68024  24.175  24.933   0.816  0.1173 -0.0357 -0.3630
36809W        W68025  26.508  20.313   2.996 -0.2695  0.2683  0.0772
36810W        W68026  27.308   8.981   0.800 -0.0766  0.0549  0.1777
36811W        W68027   4.212  11.994   2.976 -0.0150 -0.1590  0.1628
36812W        W68028   4.086  26.873   2.960 -0.2637 -0.1614  0.0590
36813W        W68029   0.200  13.793   9.802  0.0409  0.0075 -0.2020
36814W        W68030  13.343  24.497  10.336 -0.1653  0.0576 -0.1389
36815W        W68031  22.535  15.527   1.115  0.3266  0.1307  0.1083
36816W        W68032   0.646  18.568   9.248 -0.2752  0.0346  0.0116
36817W        W68033  14.293  19.137   8.600 -0.0110 -0.0454 -0.0653
36818W        W68034  14.565  13.028   0.620  0.1473  0.0098  0.0230
36819W        W68035   9.129   7.009   2.544 -0.2056  0.0194 -0.1023
36820W        W68036  17.975   4.849   9.740 -0.1662  0.3901 -0.0380
36821W        W68037  16.552  21.278   8.856  0.1100  0.2689 -0.1711
36822W        W68038  10.705  27.551   8.371 -0.1979  0.1142  0.1004
36823W        W68039   6.728  18.666   1.754  0.1044 -0.0652  0.1349
36824W        W68040  21.476  12.650   3.210 -0.0709 -0.1995 -0.4021
36825W        W68041   7.739   0.794   2.811  0.1486 -0.0648  0.0822
36826W        W68042   4.248   6.926   2.529 -0.0252  0.0574 -0.2897
36827W        W68043  12.996  18.528  10.018  0.2149 -0.2930 -0.1557
36828W        W68044  25.094  23.021   9.518  0.1604  0.1279 -0.2068
36829W        W68045  12.881   6.500   1.299 -0.0222  0.1991  0.1203
36830W        W68046   4.600  18.500   1.962 -0.0363 -0.1252  0.1204
36831W        W68047  14.182  16.877   8.473  0.3168 -0.0896 -0.0179
36832W        W68048  23.121  27.219   1.103 -0.1883  0.1479 -0.0350
36833W        W68049   9.687  23.605   0.156  0.1102 -0.0838 -0.2316
36834W        W68050   4.382  26.605   9.685 -0.0227  0.0627  0.0524
36835W        W68051  25.086  24.815   9.139  0.4472  0.3257 -0.0480
36836W        W68052  26.832  14.545   1.680  0.1947  0.1416  0.0582
36837W        W68053  18.529   3.102   7.416  0.1302  0.1620 -0.1662
36838W        W68054  19.298   7.500   1.966  0.2937 -0.0277  0.2572
36839W        W68055   9.380  13.876   9.413 -0.3186 -0.0129 -0.1227
36840W        W68056  13.281   3.946   3.899 -0.1043  0.2663  0.0048
36841W        W68057   3.694  11.886   2.904  0.2414  0.0445 -0.1613
36842W        W68058   3.943   6.134   1.814 -0.2920 -0.1434 -0.1022
36843W        W68059  22.953  11.638   1.377 -0.0612  0.2178  0.0541
36844W        W68060  11.036  13.874   9.136 -0.1457  0.2748 -0.0538
36845W        W68061   3.521  22.282  10.379  0.1787  0.0304 -0.2273
36846W        W68062  16.605  20.103   1.144  0.0015  0.0558 -0.3648
36847W        W68063  20.231   4.806   9.688  0.0783  0.0902  0.2434
36848W        W68064   9.278  17.968   2.186 -0.0533  0.0601  0.3770
36849W        W68065  12.586   4.493  10.535 -0.2024 -0.0265 -0.2215
36850W        W68066  17.936   2.886   2.525 -0.3245  0.1304 -0.0759
36851W        W68067  12.223  20.486   0.041 -0.0619 -0.2075 -0.0380
36852W        W68068   6.275  24.157   8.306  0.2350  0.0229 -0.0881
36853W        W68069  10.291   5.278   0.483  0.1507 -0.1949  0.1867
36854W        W68070   2.099  24.646   9.022  0.0851  0.2670 -0.2177
36855W        W68071  17.936   4.316   9.813 -0.0414  0.3102 -0.3424
36856W        W68072  17.233  14.436  10.109 -0.1458 -0.1539  0.0094
36857W        W68073   0.623  12.322  10.027  0.2882  0.1931 -0.2136
36858W        W68074  14.524  24.506   3.131  0.2183 -0.0517  0.2958
36859W        W68075  24.633  16.679   3.166 -0.2312 -0.0663  0.0664
36860W        W68076  26.196  26.814   0.058 -0.1393  0.0592 -0.0422
36861W        W68077   4.037  25.824  10.087  0.3814  0.2754  0.0583
36862W        W68078   8.634  25.215  10.386  0.2540 -0.3030 -0.0076
36863W        W68079  16.590   0.525   8.203 -0.0044  0.0976 -0.0817
36864W        W68080   1.832  16.448   2.412 -0.3391 -0.0378 -0.0321
36865W        W68081  14.315  27.569   3.017  0.0693  0.1576 -0.0669
36866W        W68082  25.094  21.428   3.133 -0.0128 -0.1368  0.0688
36867W        W68083  19.639   3.335   8.194 -0.2153  0.3290 -0.0562
36868W        W68084  14.500  13.111   0.150 -0.2216  0.1681  0.2355
36869W        W68085  22.192  17.189   9.551  0.1820 -0.0565 -0.2972
36870W        W68086  19.946   8.834   9.032 -0.1826 -0.1601 -0.2168
36871W        W68087   0.220  11.243   2.780 -0.2156  0.2305  0.0754
36872W        W68088  22.255  21.725   9.479  0.0764  0.0243  0.0038
36873W        W68089   8.838  25.665   8.178  0.2959  0.2877 -0.3841
36874W        W68090  21.044   6.845   2.538 -0.0632 -0.0417  0.0069
36875W        W68091   5.305  14.159  10.446 -0.2198  0.1252 -0.0703
36876W        W68092  16.937   7.436   8.378 -0.2587  0.0224  0.1629
36877W        W68093   3.730   7.254   3.682 -0.3414  0.0917 -0.0764
36878W        W68094  21.198  15.743   7.590 -0.0596 -0.0379 -0.0137
36879W        W68095   2.978   4.603   3.260  0.1883 -0.1281 -0.1395
36880W        W68096  27.169   9.201   8.625 -0.0776 -0.0993  0.1526
36881W        W68097  20.612  16.566   8.972  0.0746  0.1590  0.2539
36882W        W68098   7.546  18.070   9.224 -0.0514  0.2787 -0.1322
36883W        W68099  17.676  16.277   2.879 -0.1237 -0.0344  0.1958
36884W        W68100   2.854  23.658   8.308 -0.4383 -0.2012  0.1514
36885W        W68101  21.706   4.459  10.080  0.1427  0.1682  0.2804
36886W        W68102  12.719  23.865   8.921 -0.1100  0.2266 -0.1714
36887W        W68103  13.489  10.735   1.743  0.2291  0.1480 -0.1877
36888W        W68104   8.324   0.590   0.874 -0.0133 -0.0891  0.0664
36889W        W68105   0.352   6.912   1.830 -0.1616  0.1243  0.0988
36890W        W68106  18.909  22.111   2.206  0.2941 -0.1051 -0.0534
36891W        W68107  21.813  27.205   0.492  0.1523 -0.0641  0.2024
36892W        W68108   5.519  22.401   9.774  0.0691  0.0745  0.1235
36893W        W68109  17.612  16.230   9.546  0.0216  0.4314  0.0551
36894W        W68110  13.445   1.205   9.932 -0.0154  0.1637 -0.1350
36895W        W68111  16.500  18.918   7.777 -0.1025 -0.1417 -0.0213
36896W        W68112  26.203   1.580  10.491 -0.2687 -0.1838  0.1553
36897W        W68113   7.651  21.760   3.691 -0.1577  0.1989 -0.2131
36898W        W68114  22.576   1.382   8.964 -0.4272 -0.0454 -0.2014
36899W        W68115  23.780   1.751   0.033 -0.0247  0.0709 -0.1563
36900W        W68116  22.517  26.752   2.991 -0.1667 -0.0246 -0.2137
36901W        W68117  20.035  19.585   0.007 -0.1334  0.1220  0.1656
36902W        W68118  21.161  24.621   8.153  0.0944  0.0013  0.0445
36903W        W68119  22.262  16.961   7.984  0.0680 -0.0163  0.0366
36904W        W68120   2.271   9.065   1.327  0.2066  0.2976 -0.1267
36905W        W68121  24.086  22.561   9.627 -0.0546 -0.1489 -0.0919
36906W        W68122   5.622   5.689  10.484 -0.0672 -0.1197  0.0418
36907W        W68123   2.328   5.480   0.183 -0.2227  0.0736 -0.1389
36908W        W68124  25.174  18.723   9.354  0.1179  0.3553  0.1263
36909W        W68125  19.789  19.921   2.093 -0.0272 -0.0032 -0.0265
36910W        W68126   4.606   9.462   0.038 -0.0947 -0.4025 -0.0022
36911W        W68127  23.530  16.878   7.799  0.0467 -0.2513 -0.1854
36912W        W68128  10.463  22.720  10.412 -0.3188  0.1378 -0.1194
36913W        W68129   1.817  22.489   2.183 -0.1633 -0.1626  0.2065
36914W        W68130  13.979  21.749   3.084  0.1343 -0.2966 -0.0682
36915W        W68131  19.430  10.535   9.302 -0.1466 -0.0381  0.2770
36916W        W68132   6.622   2.920   9.239  0.0802  0.0432 -0.3219
36917W        W68133  25.077  17.970   8.903  0.0604  0.1179  0.4701
36918W        W68134  18.181  21.359   3.139 -0.1669  0.0254  0.2908
36919W        W68135  25.574   9.467   9.267  0.2095 -0.2243  0.1584
36920W        W68136   1.708  12.038  10.067 -0.0820 -0.1443 -0.0227
36921W        W68137  25.239  19.891   0.001  0.1050 -0.2163 -0.1537
36922W        W68138  20.342   9.573   2.698 -0.2596  0.1520 -0.1180
36923W        W68139  22.856  15.212  10.303  0.1897  0.1086  0.0764
36924W        W68140  16.004   0.547   2.156  0.0750 -0.0686  0.3732
36925W        W68141   3.137   9.875   8.213  0.0130  0.4083  0.1360
36926W        W68142  15.441  19.855   2.520 -0.2571  0.0926 -0.3065
36927W        W68143  17.426  10.870  10.184 -0.1688 -0.0781 -0.0496
36928W        W68144  18.613  10.904   8.509  0.2047 -0.0648 -0.0379
36929W        W68145  11.326  11.594   2.470  0.1020 -0.0801 -0.0753
36930W        W68146   0.190   1.698   9.819 -0.0890 -0.2775  0.0054
36931W        W68147   0.220   2.179  10.103  0.2278  0.2554 -0.3891
36932W        W68148  20.384  24.006  10.517  0.1373  0.2934  0.2804
36933W        W68149  26.673  21.036   1.376 -0.2143  0.0017  0.0228
36934W        W68150   6.164   6.305   8.070  0.3956  0.0210 -0.1552
36935W        W68151  16.274  17.115   2.116 -0.0892 -0.2851 -0.1240
36936W        W68152   2.213  10.394   9.284  0.0924  0.2393 -0.1853
36937W        W68153   9.533   4.675   9.965 -0.1636  0.3746  0.2650
36938W        W68154  16.134  24.189   0.642 -0.0440  0.1258 -0.0546
36939W        W68155   9.990  16.082   2.815  0.0157 -0.1185  0.0929
36940W        W68156  27.612  20.274   8.297  0.0190 -0.4479 -0.0017
36941W        W68157  20.429  21.840   7.973 -0.0186  0.1472 -0.2039
36942W        W68158  21.613  26.412   1.448 -0.1436 -0.0047 -0.1640
36943W        W68159  10.635  16.284  10.183 -0.0320  0.0817  0.0196
36944W        W68160  27.529   2.856   2.788  0.3669  0.1779  0.0416
36945W        W68161   2.413  20.724   1.275 -0.0688 -0.0631  0.1106
36946W        W68162  15.306  10.832   9.805 -0.0505 -0.0763 -0.1513
36947W        W68163   8.001   8.253   9.462 -0.4524  0.0568 -0.1148
36948W        W68164  14.753   1.311   1.434 -0.2070 -0.2164  0.1284
36949W        W68165  12.751  20.315   0.092 -0.2883  0.2487 -0.0448
36950W        W68166   8.200  11.659   1.898  0.0912  0.1421 -0.0324
36951W        W68167   8.144  11.392   7.614 -0.4121  0.3055 -0.1246
36952W        W68168   8.277   6.395   2.943  0.2710 -0.0627  0.2240
36953W        W68169  26.837   3.290   8.148 -0.0216 -0.2736 -0.1511
36954W        W68170  16.850  18.180  10.295  0.3271 -0.0210  0.0359
36955W        W68171   5.261  17.874   1.659 -0.1206  0.3004 -0.1530
36956W        W68172  19.953  20.276   2.946 -0.0554 -0.2673 -0.0640
36957W        W68173   9.882   7.508   1.888  0.0006  0.0590 -0.1132
36958W        W68174  16.354  10.959  10.050 -0.3504 -0.1591  0.2788
36959W        W68175   0.658  23.861   3.180 -0.1075  0.1008  0.2704
36960W        W68176  16.298  20.131   1.594 -0.2495  0.1176 -0.2688
36961W        W68177   5.609  13.986   9.527  0.3883 -0.0314 -0.0222
36962W        W68178  15.528  13.386   2.009 -0.0512  0.2006  0.0641
36963W        W68179  15.444   1.836   1.876  0.0802  0.1238  0.2582
36964W        W68180   2.698  21.638   2.884 -0.4540 -0.3204  0.0549
36965W        W68181   5.071  14.911   0.096 -0.1096  0.1246 -0.3008
36966W        W68182  19.851  11.812   3.918 -0.1712  0.2608 -0.1137
36967W        W68183  23.854  20.753   2.303 -0.1618  0.2151 -0.0995
36968W        W68184  26.178  14.104   3.926 -0.2822  0.0215  0.0286
36969W        W68185  23.449  15.110   8.202  0.0528 -0.2262 -0.1823
36970W        W68186  14.842   1.106   8.742  0.1606 -0.3981  0.0154
36971W        W68187  11.002  22.602   8.169 -0.0738 -0.0823  0.0026
36972W        W68188  20.908   7.833   3.264 -0.2637 -0.0142  0.4227
36973W        W68189  20.266  12.169   7.480  0.0865 -0.0256  0.3370
36974W        W68190   7.085  17.179   7.676 -0.0065  0.2736  0.1912
36975W        W68191  18.562  18.212   7.519 -0.1698 -0.0647 -0.0425
36976W        W68192  11.177   9.813   3.554 -0.0913 -0.2251 -0.1263
36977W        W68193   3.637   3.554   0.586  0.0681 -0.0956 -0.0400
36978W        W68194  19.146  17.637   2.036  0.0850 -0.0205 -0.1386
36979W        W68195  11.727  14.763   8.194  0.0001 -0.0062 -0.2389
36980W        W68196  13.720  24.085   0.630  0.1964 -0.2333  0.1307
36981W        W68197   8.481   7.038   0.925  0.1821  0.0931  0.1469
36982W        W68198  24.288   5.066  10.472  0.0581  0.3013  0.0011
36983W        W68199  12.067  26.516   7.547 -0.1786  0.1791 -0.2035
36984W        W68200  19.586  14.608   7.153  0.1510  0.2838  0.2217
36985W        W68201  22.683  11.205   1.307  0.1189  0.1956  0.0876
36986W        W68202   8.195  26.200   9.841  0.2196  0.0695  0.1639
36987W        W68203  16.171   7.937   2.191  0.1442 -0.3481  0.1437
36988W        W68204  13.224  23.352   3.209 -0.2720 -0.0698  0.2119
36989W        W68205   1.922  22.316   1.742  0.0344 -0.5253 -0.0885
36990W        W68206  20.821  20.504  10.297 -0.3649  0.1953  0.2954
36991W        W68207  26.653  21.054   9.023  0.1517 -0.0932 -0.2694
36992W        W68208  19.852  15.537   7.463 -0.2575  0.1500  0.2044
36993W        W68209   7.942  12.687   9.973  0.1189 -0.1853  0.1504
36994W        W68210   7.317  11.139   1.696  0.5283 -0.2684  0.0732
36995W        W68211  10.099  15.933   0.244  0.1890 -0.4340  0.1839
36996W        W68212   4.616  22.851   1.958  0.1817 -0.2098  0.2194
36997W        W68213   7.694   3.067   8.238 -0.2440 -0.2472  0.0328
36998W        W68214  10.226   8.492   2.487  0.3485 -0.3691  0.0696
36999W        W68215  27.381  11.109   8.598  0.1060 -0.0424 -0.3271
37000W        W68216  13.767   6.841   1.361  0.1032  0.3745  0.3627
37001W        W68217  24.321  18.565   8.852 -0.3170 -0.0706 -0.0337
37002W        W68218   6.050  25.818   0.500  0.0714 -0.2118  0.3608
37003W        W68219   2.230  13.780   1.467 -0.0996 -0.0075 -0.1735
37004W        W68220  26.936   1.629   2.925 -0.2685 -0.0475 -0.1034
37005W        W68221   9.528   2.285   2.762 -0.0973  0.0998  0.2948
37006W        W68222   4.747  22.128   9.774  0.2523  0.2803  0.0799
37007W        W68223   2.093  20.158   3.036 -0.2267  0.3045 -0.0446
37008W        W68224  24.398  12.645   3.023 -0.0722 -0.1728 -0.0042
37009W        W68225   7.219  11.976   0.020 -0.0452 -0.2871 -0.2424
37010W        W68226  26.326   7.596   8.857 -0.0436 -0.0125 -0.3350
37011W        W68227  17.565   4.976   9.423  0.2544  0.3151  0.0236
37012W        W68228  25.557  11.010   8.225  0.0594  0.0268 -0.1037
37013W        W68229  16.453   2.028   9.916 -0.2522  0.1617 -0.0136
37014W        W68230  17.384   0.176   2.475 -0.0833  0.0192 -0.0975
37015W        W68231   4.879  14.422   9.600  0.0819 -0.2844  0.0019
37016W        W68232   5.725   4.905   1.647  0.1545  0.3547 -0.1548
37017W        W68233   5.467  24.375   8.548  0.4548 -0.1238 -0.1581
37018W        W68234  23.415  23.057   1.478 -0.2319  0.1275 -0.0083
37019W        W68235  15.703  17.611   1.326 -0.4839  0.0914 -0.4404
37020W        W68236   2.549   6.425   2.268  0.0425  0.2653 -0.1107
37021W        W68237   6.698   9.824   8.335  0.0579  0.1843  0.1053
37022W        W68238   3.050   0.796   9.528 -0.1463  0.1674  0.2470
37023W        W68239  26.151  11.932   1.222  0.1674 -0.2083  0.1978
37024W        W68240   7.988  16.808   0.205  0.0381 -0.1689  0.2092
37025W        W68241  22.775   4.888   8.676 -0.2835 -0.0882  0.0620
37026W        W68242  13.735  19.326   1.479  0.1786 -0.2358 -0.2408
37027W        W68243  26.700   2.326   0.766 -0.2339 -0.0188 -0.0683
37028W        W68244  25.829   5.146   3.342  0.0293 -0.1285  0.2804
37029W        W68245  11.865  22.287   2.150 -0.0515  0.2489  0.1032
37030W        W68246  26.006  25.977   8.515  0.0523  0.0363 -0.0244
37031W        W68247  23.055   8.128   2.251 -0.2427  0.0760  0.1329
37032W        W68248  24.774  10.805   9.682 -0.3080  0.0463 -0.0330
37033W        W68249  13.450   4.999   0.333 -0.1040 -0.0433  0.3095
37034W        W68250  20.543  20.015   1.725 -0.0535 -0.1123  0.3098
37035W        W68251   0.448  13.625   1.630 -0.0906 -0.0091  0.2335
37036W        W68252  19.706  20.332   2.394 -0.1114 -0.0205  0.2220
37037W        W68253  10.135   8.258   9.577 -0.2125 -0.0762  0.1680
37038W        W68254  24.492  19.524   2.004  0.1329 -0.2115  0.0262
37039W        W68255  14.103  27.566  10.132 -0.0857  0.2719  0.0541
37040W        W68256   3.688  12.120   0.180 -0.0118  0.1206  0.0374
37041W        W68257  17.083  19.830  10.120  0.3200 -0.2550  0.0634
37042W        W68258   0.835   5.646   2.246 -0.2444  0.0858 -0.0751
37043W        W68259  24.219  21.203   9.543  0.1573 -0.1179 -0.0552
37044W        W68260  22.157  24.027   8.790 -0.0677 -0.1168  0.0361
37045W        W68261  17.640   9.547   1.845  0.0744 -0.1681  0.0837
37046W        W68262  19.919   9.721   0.150  0.3279  0.1101  0.0880
37047W        W68263  26.288  22.131   2.591 -0.0385 -0.1263  0.0350
37048W        W68264   3.802  11.263   1.804  0.0149 -0.2413 -0.1895
37049W        W68265  14.725  11.903   8.001 -0.0727  0.0586 -0.0711
37050W        W68266  20.602  17.337   9.523  0.3174  0.0525 -0.3203
37051W        W68267  15.398  20.596  10.342  0.0101  0.5782 -0.0803
37052W        W68268   9.168  20.271   8.750 -0.0581  0.6571 -0.1324
37053W        W68269  12.047  20.772   8.630 -0.0687 -0.0104  0.1543
37054W        W68270   1.724   9.078   3.616 -0.1491 -0.1707 -0.0593
37055W        W68271   1.669  19.499   2.495 -0.2791 -0.0723 -0.1897
37056W        W68272   0.689   7.595   3.523  0.1547  0.2081  0.0708
37057W        W68273  24.654  22.553   1.408  0.1832  0.0050  0.1288
37058W        W68274   6.997  14.571   8.840 -0.2056 -0.0501  0.0597
37059W        W68275  10.914  17.162   0.794  0.0650  0.2223  0.3781
37060W        W68276  24.463   2.471   9.112 -0.0255  0.1139 -0.0409
37061W        W68277  19.525   3.661   9.852 -0.0207 -0.4858 -0.0151
37062W        W68278  16.835  18.134   1.832  0.3441  0.0527 -0.1243
37063W        W68279  13.365   1.108   0.500  0.0992 -0.2422  0.0580
37064W        W68280   5.336  20.930  10.139 -0.0372  0.3364  0.1156
37065W        W68281  16.892   0.534  10.223  0.1744  0.0018  0.0599
37066W        W68282  12.806   6.598   3.366  0.2158  0.1318  0.0013
37067W        W68283   8.372   0.408   1.871  0.1524  0.3199 -0.0015
37068W        W68284  11.062  16.210   9.926 -0.1583 -0.0299  0.0047
37069W        W68285   0.149   7.042   9.796 -0.1102 -0.0550 -0.0491
37070W        W68286   8.982  11.563   8.270  0.4797 -0.0165  0.2689
37071W        W68287  15.890  24.289   1.099 -0.0142  0.2789 -0.5115
37072W        W68288  12.400  11.487   9.050 -0.0284  0.0362 -0.2622
37073W        W68289  14.322  16.579   3.341 -0.3046  0.0718  0.2119
37074W        W68290  10.678  20.776  10.138 -0.0520 -0.2047  0.3600
37075W        W68291   6.779  20.300   8.439  0.2243 -0.1996  0.0288
37076W        W68292  11.600   3.311   7.429  0.0464 -0.2413  0.1265
37077W        W68293  21.405  20.084   8.754 -0.0469 -0.1750 -0.2797
37078W        W68294   4.884  25.447   1.457 -0.0334 -0.0394 -0.0799
37079W        W68295  15.702  20.960   1.233 -0.1890 -0.0946  0.0840
37080W        W68296  22.461  18.185   9.701  0.0793 -0.0642 -0.2101
37081W        W68297  19.880  13.795   7.024  0.1297 -0.2305 -0.2315
37082W        W68298   3.601  26.033   1.381  0.0190  0.1602 -0.0570
37083W        W68299  26.461   7.395   9.388  0.1459  0.3334 -0.0211
37084W        W68300   1.501   9.659  10.193  0.1194 -0.1252 -0.0796
37085W        W68301  13.303  14.659   0.243 -0.0968 -0.3789  0.0660
37086W        W68302  15.232  20.908   2.860  0.1359  0.1240 -0.0437
37087W        W68303  18.435  12.039   1.487 -0.0156  0.0031 -0.3350
37088W        W68304  23.958  25.339   2.622 -0.0123  0.0159  0.1289
37089W        W68305  22.465   6.674   9.557 -0.0399  0.2744  0.0659
37090W        W68306  11.168   1.050   9.597 -0.1197  0.2097  0.1332
37091W        W68307  11.987  10.955   9.563  0.3783 -0.2288  0.2127
37092W        W68308  24.540  14.146   0.606  0.0104  0.3980 -0.0626
37093W        W68309  15.008  18.805   8.710 -0.3369 -0.3453  0.0690
37094W        W68310  10.064  21.118   1.218  0.0178  0.2333  0.1634
37095W        W68311   8.503  17.840   8.140  0.0568  0.1383 -0.0046
37096W        W68312  13.649  10.365   8.867  0.1735 -0.0428 -0.0674
37097W        W68313  27.264   0.719   9.342 -0.3360  0.0605 -0.1042
37098W        W68314   3.864   4.534   2.496  0.1636 -0.2573 -0.2900
37099W        W68315  21.135   0.929   7.948  0.1876 -0.0727  0.0842
37100W        W68316   8.336   1.778   0.564 -0.1722 -0.0908 -0.1780
37101W        W68317  19.348  10.534   1.813  0.3651 -0.0531 -0.1187
37102W        W68318  16.599  17.806  10.525  0.2053 -0.2392  0.0073
37103W        W68319   3.992  27.047   2.452 -0.1874  0.0042  0.2410
37104W        W68320   4.822   7.112   1.832  0.0049  0.3218 -0.1775
37105W        W68321   6.778  26.530  10.331 -0.2597 -0.0858 -0.2123
37106W        W68322  11.877  24.979   8.083  0.1450 -0.1601 -0.4167
37107W        W68323   0.661  15.936   8.168 -0.0334  0.0907 -0.1412
37108W        W68324  15.808   1.896   2.247 -0.1645 -0.0051  0.1510
37109W        W68325   3.670   4.683   0.959 -0.3756 -0.2314  0.0435
37110W        W68326   7.627  11.132   2.715  0.1730  0.0696  0.1472
37111W        W68327   8.207  20.517   1.441  0.1946  0.1742  0.0857
37112W        W68328  20.900  23.732   9.454  0.2110  0.0742  0.2928
37113W        W68329  11.459  23.183   2.346  0.0385  0.0671  0.0318
37114W        W68330  22.433   7.069  10.303 -0.1060  0.1776  0.0809
37115W        W68331   1.384  21.062   8.960 -0.1386  0.1537  0.0225
37116W        W68332   1.835  18.288   3.692  0.1878 -0.0405  0.0168
37117W        W68333  19.924  19.457   7.884 -0.0630 -0.1371  0.2033
37118W        W68334  12.143  17.172   3.425 -0.1113  0.0151 -0.1777
37119W        W68335  22.120  17.478  10.213  0.2600 -0.2607  0.1460
37120W        W68336   2.624  11.996   2.584  0.2447 -0.2895  0.0413
37121W        W68337  25.962  23.732   1.744  0.0533 -0.1213  0.2535
37122W        W68338  17.510  21.879   2.480 -0.0225 -0.1926 -0.0530
37123W        W68339  11.008   2.701   2.665  0.2664 -0.1076  0.0113
37124W        W68340  14.094  11.267   0.999 -0.0366 -0.2614  0.0286
37125W        W68341   7.308   0.653   8.784  0.2614  0.1619  0.0891
37126W        W68342   6.246  19.722   1.499  0.2047  0.3817  0.0487
37127W        W68343   8.467  27.005   2.117  0.0683  0.0892  0.1461
37128W        W68344  13.687   3.289   0.987 -0.1279  0.0048  0.1208
37129W        W68345   7.096  18.821  10.065  0.0705 -0.0659  0.4142
37130W        W68346  11.663  14.457   9.071 -0.0206  0.0685 -0.3703
37131W        W68347   2.969   7.844   7.937 -0.0318 -0.0823 -0.2267
37132W        W68348  18.680  19.391   1.125 -0.1555 -0.5894  0.2804
37133W        W68349   1.986   2.706   7.916  0.0422 -0.2889 -0.2561
37134W        W68350  13.467   8.542   1.235 -0.0642  0.1799  0.1189
37135W        W68351  23.153   7.321   0.800  0.0017 -0.3505 -0.1764
37136W        W68352  18.438  21.067   0.217  0.1614  0.1647 -0.1183
37137W        W68353   2.725  16.777   0.770  0.0066  0.3007 -0.1185
37138W        W68354   3.532  19.266   2.637  0.2258 -0.1503 -0.2171
37139W        W68355  19.305  16.456   9.243  0.0816  0.0727 -0.4184
37140W        W68356   7.649  24.844  10.153  0.0579 -0.1167  0.0660
37141W        W68357   4.549  22.852   1.060  0.0538 -0.1309 -0.0102
37142W        W68358   3.656  24.706   8.551 -0.2113  0.0095  0.0319
37143W        W68359  25.982  20.511   8.611  0.0691 -0.1638  0.1928
37144W        W68360  25.670  27.465  10.084 -0.1353  0.1009 -0.0219
37145W        W68361  13.228  27.233   0.437 -0.2985 -0.0044 -0.2137
37146W        W68362   4.956  14.304   7.867  0.1290  0.1321  0.1550
37147W        W68363  10.259  24.611  10.149 -0.1605  0.1180 -0.3259
37148W        W68364  20.352   6.625   9.670 -0.1461  0.2343 -0.0076
37149W        W68365   4.889  24.116   8.109  0.4255  0.1271  0.1925
37150W        W68366  22.596  12.921   8.017  0.4199  0.0203 -0.0658
37151W        W68367   5.123  14.133   8.788 -0.2392 -0.2587 -0.3320
37152W        W68368  10.247  21.818   1.761  0.0796 -0.0360 -0.0391
37153W        W68369  13.495   7.868   2.762 -0.1486  0.1441  0.3336
37154W        W68370  19.248  24.538   8.321  0.0737 -0.0357  0.1054
37155W        W68371  26.642  13.398   3.354 -0.3265  0.0563 -0.0320
37156W        W68372  17.833  17.925   9.681 -0.0561 -0.1689 -0.0640
37157W        W68373   7.274   4.723   1.602  0.1342 -0.1613 -0.1294
37158W        W68374  13.821   5.166   1.748 -0.0994 -0.0345  0.2219
37159W        W68375  15.111  15.735   7.509  0.0435  0.0141  0.1044
37160W        W68376  13.933  17.193   0.570 -0.1309 -0.0982  0.3783
37161W        W68377   0.042  12.408  10.328 -0.0423 -0.2366 -0.0403
37162W        W68378   1.879  13.717   0.146  0.1471 -0.1421  0.1628
37163W        W68379   8.199  26.007   7.568 -0.3182  0.0924 -0.1107
37164W        W68380  19.362  10.046   0.171  0.0004  0.1195  0.0926
37165W        W68381   3.850  10.897   7.415  0.0721 -0.0495 -0.1970
37166W        W68382  23.335  10.371   3.498 -0.4040  0.2026 -0.1094
37167W        W68383  21.140  15.977   0.137  0.1003 -0.0494  0.0193
37168W        W68384   1.412  10.532   2.817 -0.0432 -0.0669 -0.0204
37169W        W68385  12.866  25.323   2.294  0.3373 -0.0402 -0.4975
37170W        W68386  18.080  18.261  10.230 -0.0820 -0.1648 -0.1635
37171W        W68387   5.252  11.519   9.287  0.1421  0.0871  0.3670
37172W        W68388  12.277  10.921   1.407  0.0908 -0.1864  0.2560
37173W        W68389   3.398  22.966   2.727  0.2968  0.2307 -0.1378
37174W        W68390  13.083   3.306   9.402  0.2474  0.0095  0.2092
37175W        W68391  22.846  23.093   7.945  0.1363 -0.0696 -0.1782
37176W        W68392  14.746  13.974   0.965  0.2074  0.2574  0.1984
37177W        W68393   0.859  18.059   2.204 -0.3068  0.1413  0.2161
37178W        W68394  12.980  24.958  10.444 -0.1449 -0.2707  0.0319
37179W        W68395   8.794  26.752   9.900  0.0219 -0.2330 -0.0044
37180W        W68396   1.604  23.222   2.012  0.1649  0.2633  0.4148
37181W        W68397   7.740  11.220   0.093  0.2186  0.0636  0.1715
37182W        W68398   2.078   8.937   0.656  0.1293 -0.3677 -0.1820
37183W        W68399  15.181  24.314   9.476 -0.1195 -0.4985  0.1477
37184W        W68400  14.455  11.319   8.101  0.1473  0.2090  0.1589
37185W        W68401   9.888  11.510   2.955 -0.1219  0.1434 -0.0850
37186W        W68402  27.031   8.976   0.227 -0.0987  0.2365 -0.0010
37187W        W68403  24.052  24.843   7.953 -0.1055 -0.0745  0.2139
37188W        W68404  10.215  27.171   9.826 -0.1560  0.3214  0.1077
37189W        W68405  23.583  13.201   0.983 -0.0016  0.2687  0.0005
37190W        W68406  18.695   3.009   3.400 -0.0292 -0.2004 -0.1194
37191W        W68407  15.103  13.944   8.524 -0.0098 -0.1317 -0.0599
37192W        W68408  13.344   9.948   8.719  0.1549  0.0603 -0.3770
37193W        W68409  21.333  10.929   0.204 -0.1530 -0.0530 -0.2937
37194W        W68410  18.803   4.833   1.576 -0.3321 -0.0423  0.1232
37195W        W68411  15.724   8.103   1.319 -0.0986  0.3148 -0.1433
37196W        W68412  25.969   0.138   2.542  0.3925  0.1249 -0.3194
37197W        W68413  10.212  20.381   0.733  0.1195 -0.2260 -0.0269
37198W        W68414   2.597  15.284   3.202 -0.1683 -0.1990  0.0600
37199W        W68415  19.386  15.618  10.240 -0.0866  0.2433  0.1994
37200W        W68416  19.428  23.731   0.505  0.2136 -0.1223  0.2429
37201W        W68417  17.464  27.164  10.322  0.0677 -0.2822 -0.1758
37202W        W68418   3.553   6.802   1.337  0.0638  0.1661 -0.3012
37203W        W68419   4.688  15.701   2.339 -0.1123 -0.3425  0.1292
37204W        W68420   6.559  15.579   1.402  0.0763 -0.0030  0.1957
37205W        W68421   3.959   5.545   9.342  0.1855 -0.3138  0.0152
37206W        W68422  25.374  20.657   2.458  0.0407 -0.0191 -0.1656
37207W        W68423  13.186   2.649   3.906  0.0090 -0.1713  0.0235
37208W        W68424   1.052  26.933   3.099  0.0468  0.1099  0.0202
37209W        W68425   4.967  27.229   8.548  0.1976  0.0618  0.0069
37210W        W68426  21.724  10.486   3.396  0.1045 -0.2356  0.3131
37211W        W68427   8.865  20.042   8.003 -0.1806 -0.0670  0.0504
37212W        W68428   5.253  10.538   0.551 -0.3267  0.4398 -0.0874
37213W        W68429  21.093  26.140   9.887 -0.1034  0.2928  0.1151
37214W        W68430  19.579  27.474   1.544 -0.1226 -0.0600  0.2849
37215W        W68431  23.025  26.079   0.525 -0.1571  0.1262 -0.2480
37216W        W68432  20.785  21.408  10.296 -0.2105 -0.2884  0.1073
37217W        W68433   2.768  24.773   8.530  0.0763  0.5698 -0.5370
37218W        W68434  21.025  26.968   1.147 -0.2721  0.2654 -0.0337
37219W        W68435  19.810  15.467   9.925  0.2066  0.1594 -0.1127
37220W        W68436  23.572  21.192   2.418  0.0007  0.1794 -0.3197
37221W        W68437  19.842   2.074   2.365 -0.0230 -0.4943 -0.0163
37222W        W68438  25.705   5.998   3.286 -0.1211 -0.1453  0.1551
37223W        W68439  16.084  25.056   2.876  0.0959 -0.1233  0.2353
37224W        W68440  26.587  22.736   9.217 -0.0192 -0.2323 -0.0090
37225W        W68441  26.965   8.827   3.562  0.2235  0.1041  0.1890
37226W        W68442   2.312   9.689   9.843  0.0986  0.1207 -0.0766
37227W        W68443  19.999  18.630   8.714 -0.1250 -0.0395  0.0170
37228W        W68444  27.395   6.239   9.342  0.0148  0.3501 -0.0234
37229W        W68445   2.390   6.388   9.527  0.0326 -0.3493  0.0792
37230W        W68446  23.146   0.605   1.269  0.1297  0.2150  0.1012
37231W        W68447  23.206   5.739   1.570  0.0927  0.1210 -0.1885
37232W        W68448  22.728  26.919   8.180  0.0031  0.3691  0.2018
37233W        W68449   1.181  18.429   0.757  0.0432 -0.5573 -0.0184
37234W        W68450   7.975   4.588   8.277  0.0167 -0.0751  0.2741
37235W        W68451  18.914  13.127   3.587  0.0873 -0.0527  0.3106
37236W        W68452  22.974   0.765  10.110  0.2761 -0.0359 -0.1399
37237W        W68453  20.378  20.347   3.280 -0.0277 -0.3640 -0.0083
37238W        W68454  22.804  23.656   9.157  0.1529  0.1102  0.2663
37239W        W68455  20.522  26.812   8.961 -0.1592 -0.0165  0.4197
37240W        W68456  25.670  15.151  10.382  0.0709  0.0259 -0.3729
37241W        W68457   3.575  27.615   0.147  0.0695 -0.1205 -0.0387
37242W        W68458   6.853  16.436   1.275  0.2464  0.2196  0.0897
37243W        W68459   6.549  19.701  10.343  0.0247 -0.2223 -0.0369
37244W        W68460  14.266  20.300   9.551  0.0248  0.3057  0.1113
37245W        W68461   8.845  26.745   8.769 -0.0277 -0.3976 -0.0711
37246W        W68462  13.709  16.347   9.802 -0.1101  0.1848  0.0094
37247W        W68463  13.895  18.661  10.265  0.2798  0.0048 -0.1110
37248W        W68464   6.109  12.476   2.555 -0.2012 -0.1220  0.0445
37249W        W68465   9.930  12.508   9.936  0.0693 -0.0727  0.0140
37250W        W68466  13.482  15.513   9.532 -0.2970 -0.0717 -0.0576
37251W        W68467  18.508  23.999   0.014  0.1377  0.0382 -0.4596
37252W        W68468   0.561   3.438   1.157 -0.1969 -0.2311 -0.2259
37253W        W68469   0.265  19.740   8.352 -0.0897  0.0008 -0.0029
37254W        W68470   1.232  20.238   9.569 -0.0266  0.0017 -0.0594
37255W        W68471  18.506  16.670   1.431  0.2451 -0.0756  0.0317
37256W        W68472   8.759  19.300   7.751 -0.1572  0.2932  0.2590
37257W        W68473   7.767  18.639  10.484 -0.0656  0.0095 -0.2719
37258W        W68474  18.266   3.766   9.338 -0.1853  0.1559 -0.1690
37259W        W68475   6.360  21.877   3.960 -0.1159 -0.2658 -0.1142
37260W        W68476   0.825  16.893   8.031  0.1449  0.0236 -0.0558
37261W        W68477  17.658   0.478   8.719  0.1469  0.2537  0.1133
37262W        W68478   0.460  21.422   8.946  0.2220  0.0502  0.1386
37263W        W68479   4.640  16.139   1.960  0.0475  0.0050 -0.1344
37264W        W68480  20.201  14.546   8.567  0.0355 -0.3018 -0.1511
37265W        W68481   1.591   1.555  10.505 -0.0519 -0.0764  0.1720
37266W        W68482  23.440   9.662   1.098 -0.0224  0.1329 -0.1212
37267W        W68483  15.953   7.929   0.782  0.2094  0.1021  0.2466
37268W        W68484   9.595  14.305   0.877 -0.4184 -0.0908 -0.1036
37269W        W68485   8.743  21.710   0.623  0.0361  0.4162 -0.0554
37270W        W68486  21.034   7.714   0.404  0.0788  0.1092  0.0742
37271W        W68487  26.471  10.702   0.444  0.1330 -0.0592  0.3462
37272W        W68488  19.888  15.579   1.718 -0.0906 -0.0591  0.2290
37273W        W68489  10.928   4.779   1.092 -0.1597  0.2285  0.1212
37274W        W68490  17.074  12.187   0.962  0.0939  0.1597 -0.2406
37275W        W68491   7.742   4.675   8.752  0.0686 -0.0958 -0.2450
37276W        W68492   6.078   4.493   1.724 -0.0257 -0.0940  0.2623
37277W        W68493  10.292  22.260   0.173 -0.0195 -0.2639  0.0978
37278W        W68494  25.273   2.191  10.041 -0.0113  0.2094 -0.2696
37279W        W68495   6.296   0.809   0.060 -0.1813 -0.1716 -0.0099
37280W        W68496   7.674  23.797   8.294 -0.3488 -0.2534  0.0268
37281W        W68497  13.768  24.524  10.002  0.1314  0.2621  0.0330
37282W        W68498  13.875  25.278   9.558  0.0303 -0.0028 -0.1788
37283W        W68499  11.739   6.906   2.966  0.2510 -0.2515  0.2518
37284W        W68500  22.199   5.181   1.808  0.0724  0.2420  0.0159
37285W        W68501  20.189  12.086   9.516 -0.0612 -0.2850  0.2635
37286W        W68502  18.435   5.117  10.141 -0.1564  0.1408  0.0103
37287W        W68503  17.414  22.932  10.186  0.2570  0.1964  0.0941
37288W        W68504   3.090  25.204   1.345 -0.0368  0.0013 -0.2856
37289W        W68505  25.992  18.892   8.191 -0.0271 -0.2210  0.1303
37290W        W68506  15.383  23.168   1.564  0.1993  0.1024  0.1132
37291W        W68507   0.201  25.240   3.493  0.1182 -0.1194 -0.1920
37292W        W68508  24.333  15.619   9.943 -0.2664  0.1908  0.0551
37293W        W68509  13.588   7.780   1.855 -0.2646  0.1786  0.2535
37294W        W68510   6.226  20.833   0.563 -0.0032  0.0885 -0.0739
37295W        W68511   9.984  21.679   8.215  0.0515 -0.0735 -0.2750
37296W        W68512   0.427   2.361   8.651  0.1387 -0.0421 -0.0685
37297W        W68513   0.690  21.664   0.930 -0.2010  0.0210 -0.0633
37298W        W68514  19.573   6.936   1.953 -0.0617 -0.1215  0.0945
37299W        W68515   0.993  21.990  10.340 -0.0162 -0.1930 -0.0522
37300W        W68516  27.378   8.610   8.763 -0.1579  0.1963 -0.0956
37301W        W68517   5.733   8.813   7.868  0.5085  0.0911  0.0769
37302W        W68518  11.815  21.531   7.848  0.2421 -0.0695  0.4116
37303W        W68519   8.221  18.827  10.200  0.0198 -0.0328 -0.3660
37304W        W68520  24.739   5.316   9.238  0.1914  0.0022 -0.1756
37305W        W68521   7.505   9.270   0.947 -0.0671  0.0948 -0.0759
37306W        W68522  10.414   3.539   1.044  0.3463  0.1422 -0.1461
37307W        W68523  18.749  11.310   7.296  0.0751  0.0589  0.0639
37308W        W68524  27.068   1.689   0.342 -0.2685  0.1413 -0.1681
37309W        W68525  10.914  12.163   0.901  0.1834 -0.1498  0.1727
37310W        W68526  20.920  11.282   2.604 -0.2325  0.1370 -0.1810
37311W        W68527  16.164   3.180   8.989 -0.0309  0.1655  0.1830
37312W        W68528   9.619  18.747   8.737 -0.1692 -0.1399  0.0217
37313W        W68529  11.191  17.439  10.119 -0.2698 -0.0372  0.0777
37314W        W68530  12.582  25.462   3.305 -0.3587  0.0635  0.1133
37315W        W68531   5.615   8.324  10.184  0.2891  0.3862 -0.0748
37316W        W68532   5.170  15.289   0.495  0.1361 -0.0206  0.3652
37317W        W68533  15.779  11.851   3.245 -0.1199  0.0587  0.1605
37318W        W68534  14.201  11.422   9.572  0.2720 -0.3890 -0.1496
37319W        W68535  24.074  19.643   8.941 -0.2263  0.2354 -0.3790
37320W        W68536  14.383   0.466  10.208 -0.1274 -0.2893 -0.0991
37321W        W68537  12.129  11.401   2.032  0.1767 -0.4420  0.1761
37322W        W68538  18.540  25.418   8.949  0.0043 -0.2915 -0.0477
37323W        W68539  25.131   7.013   1.643 -0.2949 -0.3407  0.0186
37324W        W68540  22.132  11.577   1.991  0.0949 -0.0288 -0.1803
37325W        W68541   5.529   0.081   3.787 -0.1699  0.1179  0.1333
37326W        W68542   0.335  19.379   9.628 -0.3820 -0.3213 -0.0181
37327W        W68543   6.672  19.764   0.641  0.2247  0.1581 -0.2371
37328W        W68544   5.938  26.709  10.046 -0.0308 -0.1635 -0.1868
37329W        W68545   0.789  18.229   0.960 -0.0219  0.4664  0.0680
37330W        W68546  15.179  25.762   9.565  0.0878 -0.1599  0.0760
37331W        W68547  10.218   7.134   0.693 -0.1231 -0.1137  0.2824
37332W        W68548  26.747  19.189   1.899 -0.0012 -0.2138  0.1257
37333W        W68549  13.992   1.309   1.837 -0.3245  0.2300  0.0850
37334W        W68550  14.941  15.981   8.058  0.2845  0.0681 -0.0953
37335W        W68551  25.459  21.452   2.781 -0.2081 -0.1773 -0.2163
37336W        W68552  22.248  15.518   0.558 -0.2188 -0.1922 -0.0469
37337W        W68553  14.160  22.064   1.054 -0.0112 -0.0934 -0.1205
37338W        W68554  12.414  20.961   7.691 -0.1074  0.4059 -0.2854
37339W        W68555   9.252  27.191   0.588  0.0983 -0.2227 -0.0556
37340W        W68556   8.921  27.084   0.230  0.3862 -0.2298  0.2011
37341W        W68557   5.497  21.643   2.043 -0.2320  0.0992  0.0219
37342W        W68558   7.127   2.176   9.297  0.0708  0.3090  0.2699
37343W        W68559   8.856   8.704   2.791  0.0099 -0.0828 -0.2800
37344W        W68560  25.680  16.991   2.333 -0.0869 -0.2070 -0.0615
37345W        W68561   0.918   7.160   3.683  0.0064 -0.1868 -0.1637
37346W        W68562   8.009  20.669   9.936 -0.2225  0.2761  0.2361
37347W        W68563  20.515   9.293  10.325  0.1774 -0.2821  0.4166
37348W        W68564   7.762  24.936   0.524 -0.0363 -0.1626 -0.1059
37349W        W68565  17.311  23.504   2.012  0.2996  0.0970  0.0200
37350W        W68566   4.429  16.229   9.027  0.0637 -0.0203  0.0541
37351W        W68567   9.669  20.726   0.368 -0.1661  0.0510  0.1847
37352W        W68568   1.634   7.594   3.451  0.2399  0.1334  0.0634
37353W        W68569  17.036   4.180   1.494  0.0336 -0.0893  0.2122
37354W        W68570  19.253   0.031   8.150 -0.2117  0.0301  0.0359
37355W        W68571  27.148  23.675   0.791 -0.1071 -0.0978 -0.2207
37356W        W68572   6.890  22.400   1.347  0.0034  0.1200  0.0201
37357W        W68573  20.632  12.321   1.174 -0.2143 -0.0690 -0.2270
37358W        W68574  19.722  19.141   3.284  0.2183  0.0254  0.0594
37359W        W68575  19.288  14.649   1.853 -0.5435 -0.1795  0.0887
37360W        W68576   9.061   3.640   1.761 -0.1611 -0.3572 -0.0962
37361W        W68577   5.153  22.860   7.982 -0.3704  0.0177 -0.1612
37362W        W68578   5.412  13.501   9.577 -0.0596  0.0688  0.1286
37363W        W68579  14.134  10.452   7.521 -0.0870 -0.0092  0.4284
37364W        W68580  16.515  22.925  10.025 -0.0592  0.2820 -0.0617
37365W        W68581  11.922   0.313  10.279  0.0302 -0.2036 -0.2354
37366W        W68582  24.493  24.640   7.225 -0.0585 -0.1316  0.3477
37367W        W68583  14.975   5.230  10.080 -0.2279  0.1398  0.0237
37368W        W68584  23.102  10.240   9.818  0.2295 -0.4166  0.1016
37369W        W68585  16.687  14.413   0.506 -0.1391  0.1425  0.1273
37370W        W68586   0.407  18.802   8.083 -0.2837 -0.0087 -0.1682
37371W        W68587  25.017  21.405   8.525 -0.1711 -0.1841  0.0087
37372W        W68588  21.694  18.061   8.939 -0.2335 -0.2064  0.1153
37373W        W68589  26.527  16.513   3.634  0.1960  0.0942 -0.2679
37374W        W68590  25.903  22.392   0.782 -0.1085 -0.1265 -0.2063
37375W        W68591   7.843  13.294   1.648  0.1733 -0.0237 -0.1530
37376W        W68592  21.228   9.816   1.280 -0.1348 -0.3017 -0.1964
37377W        W68593   2.938   0.610   8.622 -0.0232  0.1110 -0.0300
37378W        W68594   8.874  15.617  10.342 -0.1138  0.1097 -0.1232
37379W        W68595  10.769   4.302   0.438 -0.0078  0.3077 -0.0926
37380W        W68596  24.141   3.573   2.408 -0.1377  0.3441 -0.0914
37381W        W68597   3.031  15.477   1.212  0.0573  0.0791 -0.0209
37382W        W68598   6.651  26.603   0.617  0.1383  0.0551 -0.1844
37383W        W68599  25.717  15.570   1.748 -0.2731  0.1447  0.0577
37384W        W68600   3.777  12.425  10.299  0.2517 -0.0108 -0.2500
37385W        W68601  26.461  17.803   0.627  0.0641 -0.2362  0.0064
37386W        W68602  25.049  14.654   7.372 -0.1792 -0.1656  0.5533
37387W        W68603  15.983  17.548   8.842 -0.0850 -0.0413 -0.0894
37388W        W68604  15.576   5.632  10.018 -0.0308 -0.0811 -0.1756
37389W        W68605  13.892  16.654   1.810 -0.0042 -0.0679  0.1592
37390W        W68606  11.126   9.756   3.021  0.0892 -0.2398 -0.2755
37391W        W68607   5.700  19.387   9.312  0.2537  0.0348 -0.2497
37392W        W68608  11.071  16.625   9.656 -0.0786  0.1236  0.4114
37393W        W68609  21.574  15.922   8.443 -0.1042  0.1619  0.0506
37394W        W68610  26.495   0.377   0.363 -0.0092 -0.4209 -0.1170
37395W        W68611  12.998  21.488   0.724 -0.2886  0.0323  0.1488
37396W        W68612  27.252  16.481   8.066 -0.0374  0.2111  0.1337
37397W        W68613   7.875  23.562  10.026  0.0251  0.2536 -0.0444
37398W        W68614  20.368  11.586   0.551  0.0187  0.2102  0.2348
37399W        W68615  12.671   0.278   0.755  0.1218  0.1066  0.1130
37400W        W68616   2.004  10.447   0.481  0.3381 -0.1978  0.2590
37401W        W68617   0.308  23.695   8.191 -0.0595 -0.0115  0.0461
37402W        W68618   4.976  23.519   3.192  0.1670  0.2312 -0.1369
37403W        W68619   3.186  11.677   9.639  0.0698  0.3263  0.2341
37404W        W68620   9.766  22.124   2.195 -0.1118 -0.2007  0.1336
37405W        W68621  11.177  10.796   2.080  0.1742  0.0348 -0.0846
37406W        W68622  26.018  18.319   0.035  0.0206  0.0538  0.0084
37407W        W68623  15.607   7.146   0.281 -0.2580 -0.1946 -0.1710
37408W        W68624  27.108  26.159   9.855  0.3671 -0.2476  0.3539
37409W        W68625  26.545   5.433   7.875 -0.0013  0.0903 -0.0726
37410W        W68626  24.165  16.411   1.506  0.0959 -0.0432  0.0467
37411W        W68627  13.868  11.130   9.786  0.4161 -0.0801 -0.5085
37412W        W68628  10.505   2.122   8.682 -0.0331 -0.1419 -0.1741
37413W        W68629  10.401  18.079   9.827  0.2642  0.2216  0.0084
37414W        W68630   1.432  13.531   7.955 -0.0022 -0.0949  0.0087
37415W        W68631  25.626  13.606   2.499 -0.5926  0.3362 -0.2138
37416W        W68632   5.236  20.784   0.124  0.2952 -0.0356 -0.0119
37417W        W68633  25.864   7.213   8.035  0.1652 -0.2118 -0.0908
37418W        W68634  13.826   1.958   0.816  0.0034  0.1976 -0.2449
37419W        W68635  21.352  27.379   8.764 -0.2687 -0.0703 -0.0637
37420W        W68636   0.222  11.257   7.984  0.0931 -0.0694 -0.1311
37421W        W68637  25.123   5.711   8.478 -0.0707  0.4065 -0.1593
37422W        W68638  11.951  13.772   2.058  0.0361  0.0997 -0.0269
37423W        W68639  25.800  24.100   7.606  0.0835 -0.2641 -0.1102
37424W        W68640   3.896   7.181  10.236 -0.2112  0.1282  0.0189
37425W        W68641   1.511  27.180   9.607  0.0741  0.2012  0.0833
37426W        W68642   8.973   0.786   2.420 -0.3731 -0.0066 -0.2367
37427W        W68643   3.065  23.479   1.561 -0.0936  0.0306 -0.0600
37428W        W68644  16.259   1.261   8.542  0.1368  0.0018 -0.0925
37429W        W68645   7.487  12.995   8.570  0.0812 -0.4950  0.1292
37430W        W68646  10.997  18.530   0.542  0.1225  0.0459 -0.0155
37431W        W68647  24.708   7.081   1.340 -0.0703 -0.1113  0.2831
37432W        W68648  15.765   4.546  10.478  0.1521 -0.0980  0.1837
37433W        W68649   1.386  11.683  10.256 -0.0589 -0.0345 -0.3413
37434W        W68650  23.702   9.685   1.775  0.1790 -0.0993  0.1263
37435W        W68651   7.231  19.040   9.310 -0.1060 -0.0224  0.1416
37436W        W68652  11.241   9.534   8.261  0.0490  0.0459 -0.3200
37437W        W68653   0.746   0.613   0.164  0.3228 -0.0124 -0.1072
37438W        W68654  27.154  19.937   0.019 -0.0271 -0.2789  0.1291
37439W        W68655  22.948  18.153   0.867 -0.0868 -0.0400 -0.0468
37440W        W68656  25.384  16.641   8.972  0.0918 -0.1829 -0.0399
37441W        W68657  13.431   4.087   1.206 -0.2281  0.3169  0.2025
37442W        W68658   0.094   0.797   1.152  0.1420 -0.1185  0.2079
37443W        W68659  11.539   8.181   2.027 -0.0917 -0.0689 -0.1741
37444W        W68660   5.463   7.092   3.327 -0.0162  0.2183 -0.2015
37445W        W68661  21.438  23.373   1.209  0.0179  0.1240 -0.0619
37446W        W68662  10.505   7.304   9.892  0.1531 -0.0910  0.0259
37447W        W68663  21.737  19.226   9.495 -0.0654 -0.3158  0.0025
37448W        W68664  10.810  19.650   2.994 -0.1716  0.3032  0.0685
37449W        W68665  17.309  14.613   2.099 -0.2137 -0.1937  0.1587
37450W        W68666  11.004   0.917   0.577 -0.1410 -0.0787 -0.1846
37451W        W68667  10.011  16.085   2.063 -0.1932 -0.1800 -0.0675
37452W        W68668   9.359  11.964   9.169 -0.0698 -0.1113  0.0661
37453W        W68669  14.035  20.902   9.893  0.1797  0.0421 -0.0190
37454W        W68670  15.326  16.773   3.049 -0.1595 -0.3109  0.0247
37455W        W68671   5.651   8.651   2.849  0.3206 -0.0782 -0.3365
37456W        W68672  14.337  20.057   9.105  0.0048  0.1830 -0.3988
37457W        W68673  14.225  24.373   2.124 -0.1227 -0.0224 -0.0955
37458W        W68674  18.911  21.093   3.489  0.0624 -0.2432  0.0077
37459W        W68675  25.173  16.630   7.465 -0.1013 -0.0331 -0.0324
37460W        W68676  18.327   3.957   8.822  0.1791  0.1627 -0.1029
37461W        W68677   3.283  20.618   8.501  0.5316 -0.0672  0.1328
37462W        W68678   2.984  25.784   3.452  0.2156 -0.0377 -0.0160
37463W        W68679  22.149   4.108   8.903  0.0272  0.0118  0.1239
37464W        W68680   0.923   6.495   1.054  0.0322  0.0471  0.0077
37465W        W68681  26.697  23.463  10.475 -0.2016 -0.2515 -0.4184
37466W        W68682   4.583   5.686   7.571 -0.2734 -0.0055  0.0934
37467W        W68683   5.673  20.823   9.336  0.1853  0.0657 -0.2921
37468W        W68684  11.503   9.852  10.334  0.2789  0.0707 -0.0305
37469W        W68685   9.059  10.627   3.436 -0.0699  0.1025 -0.0972
37470W        W68686  21.424  10.110  10.389  0.1033  0.3749  0.0377
37471W        W68687   1.643  27.153   2.546 -0.2306 -0.2271 -0.0444
37472W        W68688  10.569   8.788   3.461 -0.1286  0.0131  0.3339
37473W        W68689  21.436  21.605   1.363  0.1924  0.1533 -0.0134
37474W        W68690  10.445  21.180   2.361  0.1159  0.0421  0.3557
37475W        W68691  24.932   1.293   1.398  0.1872 -0.3407  0.1218
37476W        W68692   2.402  20.499   8.826  0.1388  0.0748 -0.2856
37477W        W68693   1.193  10.657   1.554 -0.0283 -0.1304 -0.0748
37478W        W68694  21.092  15.091   7.265 -0.0843 -0.2306 -0.0610
37479W        W68695  25.796   0.006   1.207  0.0516 -0.0687  0.1310
37480W        W68696  22.752  18.686   0.595 -0.0596  0.1728  0.1899
37481W        W68697  21.108  12.081   0.457  0.4063 -0.2545  0.1113
37482W        W68698   4.468   1.862   7.722 -0.0164 -0.0185  0.0588
37483W        W68699  12.703  24.879   1.802  0.0692  0.1256  0.0991
37484W        W68700  10.445   4.456   9.841  0.0979  0.1529  0.0413
37485W        W68701  16.045   7.596   1.861 -0.3255 -0.0666 -0.1324
37486W        W68702  18.918  14.198   1.847 -0.1704  0.1909 -0.0051
37487W        W68703  12.258  14.204   0.333  0.1571  0.2328 -0.0160
37488W        W68704  24.066  24.616   2.147  0.0509 -0.1702  0.3215
37489W        W68705   3.417  22.054   9.047  0.1273 -0.2818 -0.1508
37490W        W68706  10.716  25.874   0.123  0.4212 -0.2378  0.1483
37491W        W68707  25.174  10.883   9.986  0.1782 -0.0519 -0.0610
37492W        W68708  15.314  19.731   7.907  0.0807  0.0512  0.0648
37493W        W68709   2.080  10.178   7.763  0.3008  0.0460 -0.0133
37494W        W68710   2.676  15.743   9.164  0.1918 -0.0554  0.0715
37495W        W68711   6.256  13.011   3.132 -0.5316  0.2079  0.0693
37496W        W68712   8.084  24.902   3.240 -0.0300  0.1209  0.1944
37497W        W68713   3.163  21.794   0.527 -0.1094  0.2369  0.1424
37498W        W68714  13.995   0.836   9.256  0.0067  0.0372 -0.0885
37499W        W68715   4.974  22.113   0.678  0.3716  0.0442 -0.0684
37500W        W68716  26.842   5.485   3.119 -0.0570 -0.0405 -0.0388
37501W        W68717  14.381  18.456   0.462 -0.2289 -0.1309  0.5098
37502W        W68718  22.583  11.227   0.804  0.2837  0.0038 -0.1977
37503W        W68719   5.196   9.668   9.681  0.1434  0.0715 -0.1012
37504W        W68720   8.862   3.807   3.112  0.0081 -0.1018 -0.0332
37505W        W68721  18.603  11.635   9.341 -0.0369  0.1461  0.0844
37506W        W68722   3.740   3.850   9.410 -0.1227 -0.1248  0.0665
37507W        W68723  11.830   5.673   8.896 -0.1469 -0.1564 -0.0235
37508W        W68724   3.946  13.859   2.191 -0.2090  0.2189 -0.1056
37509W        W68725  27.538   6.037   3.401  0.1362  0.2111  0.0533
37510W        W68726   2.739  24.484   8.094 -0.1327  0.1110 -0.0372
37511W        W68727   9.480  19.687   9.766 -0.2650 -0.0358  0.0281
37512W        W68728  18.917   7.048   6.769 -0.0833 -0.0818 -0.4498
37513W        W68729   0.088  11.236  10.321  0.2686 -0.1570  0.0203
37514W        W68730   1.131  19.960   0.479 -0.1343 -0.2423 -0.1631
37515W        W68731  24.442  12.589   3.562  0.1053  0.3593  0.0634
37516W        W68732   5.398  19.133   0.955  0.0425  0.0419  0.3509
37517W        W68733   4.199   0.222   9.937  0.2336  0.1284 -0.1047
37518W        W68734  15.802  12.773   0.250 -0.1212  0.0631 -0.3072
37519W        W68735   4.850   3.632   2.509 -0.0595 -0.0804 -0.4815
37520W        W68736  11.103  13.368   8.987 -0.0084  0.0053  0.0968
37521W        W68737  26.785  16.014   0.884  0.3988  0.1268 -0.1460
37522W        W68738  16.540   2.614   2.333  0.0344 -0.0675 -0.1942
37523W        W68739  10.266   6.452   8.745  0.0510 -0.1738  0.0195
37524W        W68740  16.439  22.487   0.938 -0.1437 -0.1443  0.2354
37525W        W68741  18.342  19.479   8.364  0.1044 -0.0642  0.1198
37526W        W68742  20.183  22.436   0.242  0.1078 -0.0072  0.0185
37527W        W68743   6.675   2.297   9.379 -0.2321  0.1814  0.0740
37528W        W68744  14.311   0.373   1.119  0.0015 -0.0059  0.1140
37529W        W68745   7.458   0.089   9.891 -0.1772  0.1421 -0.0407
37530W        W68746   9.910  11.055   1.428 -0.0708  0.1423  0.0654
37531W        W68747  16.825   0.007   1.809  0.3126  0.1435 -0.1375
37532W        W68748   7.838  18.954   1.828  0.1795  0.0791  0.3693
37533W        W68749   9.425   0.684  10.173  0.0355 -0.0894  0.1559
37534W        W68750  19.285  13.578   3.282 -0.1022  0.0865  0.2221
37535W        W68751  25.821   7.752   3.114 -0.1135 -0.3653  0.0079
37536W        W68752  11.480   7.151   0.267  0.0130  0.4502  0.0480
37537W        W68753  25.874  17.072   0.839 -0.1702  0.0535 -0.0684
37538W        W68754   9.392  22.934   9.077  0.2672  0.2404  0.0612
37539W        W68755   0.776  14.968  10.466 -0.1131 -0.1056 -0.1085
37540W        W68756  21.384   2.198   2.069  0.2943 -0.0686  0.1580
37541W        W68757   9.198   0.525   3.626 -0.3489 -0.2541 -0.2363
37542W        W68758   1.947  22.417   1.213  0.0568  0.2168 -0.2323
37543W        W68759   3.951  15.905   9.079 -0.0889  0.2939 -0.1231
37544W        W68760  17.716  15.218   2.629  0.1255 -0.3705  0.1468
37545W        W68761  20.128  17.533   9.601 -0.1419 -0.0636  0.1660
37546W        W68762   6.718  18.761   0.917 -0.1926 -0.1019 -0.1423
37547W        W68763  15.490  24.125   7.868  0.1317  0.0536  0.1676
37548W        W68764   0.141   7.065   3.106 -0.1556 -0.0309  0.1150
37549W        W68765  14.933  18.593   8.287  0.2036  0.1352 -0.0923
37550W        W68766   7.111  21.385   9.640  0.0311 -0.0094  0.0171
37551W        W68767   3.434   7.477   2.245  0.2835  0.0834  0.2238
37552W        W68768   0.171   8.917  10.003 -0.2036 -0.1165 -0.1351
37553W        W68769  22.007   3.155   0.698 -0.0212  0.0292 -0.1706
37554W        W68770  24.741  15.048   9.016 -0.0690  0.3060  0.3607
37555W        W68771   6.966   6.121   0.322 -0.1565 -0.0587 -0.1803
37556W        W68772  21.182   3.859   7.263  0.1477 -0.2765  0.1356
37557W        W68773   3.148  13.168   9.443  0.0649  0.2145 -0.0224
37558W        W68774  24.024  14.559   3.844 -0.0228 -0.2063 -0.3062
37559W        W68775   9.612   8.927  10.271 -0.0410  0.3057  0.0662
37560W        W68776   3.050  20.418   1.920 -0.2031 -0.2840  0.1399
37561W        W68777  20.970   7.092   7.925  0.1431 -0.3273  0.3343
37562W        W68778  27.307  10.834  10.138 -0.1275 -0.1279 -0.0795
37563W        W68779  25.369  21.506  10.389  0.1186 -0.4594  0.1761
37564W        W68780  25.825  21.380  10.527 -0.0470  0.2671  0.0308
37565W        W68781  13.102   4.469   9.788  0.1106  0.0163  0.1779
37566W        W68782  20.421  22.279   2.793  0.1461 -0.2843 -0.2300
37567W        W68783   2.917   5.972  10.053 -0.0245  0.3471  0.0460
37568W        W68784   0.430  19.424   2.605  0.4424 -0.3432 -0.1562
37569W        W68785   9.729  10.707   2.070  0.3411  0.1004  0.0351
37570W        W68786   4.452  22.048   3.556  0.2098 -0.1344  0.1633
37571W        W68787  17.903   9.186   0.386 -0.0388  0.4403 -0.0575
37572W        W68788  20.164  27.581   8.306 -0.0991 -0.2072 -0.0237
37573W        W68789  21.832   7.783   9.654 -0.1725 -0.1022  0.2423
37574W        W68790   3.103   6.152   0.298 -0.0355 -0.1330 -0.0035
37575W        W68791  23.191  22.879   2.368 -0.0696 -0.0427 -0.3262
37576W        W68792  24.277  23.728   2.641  0.4067 -0.0963 -0.0872
37577W        W68793   4.717   1.233   1.257  0.2508 -0.1166  0.0572
37578W        W68794  25.221   8.405  10.074  0.1977  0.0445  0.0331
37579W        W68795  19.790   9.101   2.831 -0.3528 -0.2536  0.3018
37580W        W68796  16.127   3.697  10.104  0.2637  0.1583 -0.1127
37581W        W68797  21.953  13.354   3.702 -0.1253 -0.1112  0.0906
37582W        W68798   3.203   0.114   1.528  0.2477  0.0260 -0.0060
37583W        W68799   1.204  24.211   1.293 -0.1106 -0.0821  0.1160
37584W        W68800   6.494  17.438   9.160 -0.2182  0.0232 -0.0274
37585W        W68801   1.396  16.485   3.369  0.0525  0.0861  0.0581
37586W        W68802  25.809  25.724   1.012  0.2301  0.2379  0.0238
37587W        W68803  26.643   8.089   8.031 -0.0390 -0.0329  0.0264
37588W        W68804  13.112  11.176   2.343 -0.0049 -0.1714 -0.0480
37589W        W68805  23.062   1.014   2.687 -0.2515 -0.2077 -0.0259
37590W        W68806  17.902  10.242   8.332 -0.1444  0.3021 -0.0402
37591W        W68807  13.996   1.006   3.327  0.0472 -0.0260 -0.1109
37592W        W68808  22.067   5.048   7.861 -0.3217  0.2613  0.2594
37593W        W68809  11.949  18.819   0.851 -0.0991 -0.4190  0.1538
37594W        W68810   4.565  25.150  10.262 -0.0299  0.0037 -0.1640
37595W        W68811  13.226  19.056   1.421 -0.0011 -0.1573 -0.0729
37596W        W68812  25.278  11.397   2.636 -0.2328  0.0757 -0.1018
37597W        W68813   5.057   6.441   9.295  0.1503 -0.0642  0.3937
37598W        W68814   2.669  11.651   9.921 -0.1652 -0.2558 -0.0765
37599W        W68815  16.940  24.685   9.662 -0.0403  0.2274  0.0186
37600W        W68816  15.532  17.957   7.922  0.1614 -0.0681  0.0423
37601W        W68817   9.170   8.433   0.882  0.0545  0.0639  0.2484
37602W        W68818  25.809  23.305   1.132 -0.1205  0.0986  0.1190
37603W        W68819  26.546  22.825   0.383 -0.1820  0.2992  0.0908
37604W        W68820  24.432  22.066   7.984 -0.0874  0.0492  0.2205
37605W        W68821  17.486   0.650   1.633 -0.1195  0.1036 -0.0134
37606W        W68822  22.036  22.037   1.923 -0.2569  0.2911  0.1650
37607W        W68823  19.463   2.201   1.579 -0.5378  0.1526  0.0774
37608W        W68824  20.428  12.085   1.581 -0.0065  0.0855 -0.0883
37609W        W68825   3.174  26.296   7.834  0.0830 -0.3886  0.1237
37610W        W68826  11.582   7.397   1.221 -0.1894 -0.0120 -0.1360
37611W        W68827  26.339  13.756   1.510  0.2464 -0.0996  0.4092
37612W        W68828   2.531  23.759   9.456 -0.3391  0.0768 -0.0021
37613W        W68829  12.685  10.256   9.904 -0.1299 -0.1054 -0.0330
37614W        W68830   0.496   1.149   1.871  0.4359 -0.1036  0.4807
37615W        W68831  26.234   9.037   2.375  0.1573  0.0277  0.0948
37616W        W68832   6.308  16.537   2.806 -0.2330  0.5314 -0.1446
37617W        W68833  11.635  26.368   3.845  0.2859 -0.0116  0.2811
37618W        W68834  26.616  19.864   0.192  0.2047  0.0036 -0.1044
37619W        W68835  24.328  12.262   9.558 -0.4555  0.0296 -0.0530
37620W        W68836   9.865  16.504   1.175  0.1556  0.1088 -0.0715
37621W        W68837   9.486   0.146   8.684 -0.3257 -0.4333  0.1429
37622W        W68838  22.373  13.301   8.185  0.6183  0.2100 -0.0600
37623W        W68839  10.403  11.940   2.292  0.0252  0.1550  0.1450
37624W        W68840  13.367  23.120   9.868 -0.3446  0.1099 -0.0274
37625W        W68841  10.353   8.110   4.305  0.2877 -0.3924  0.1801
37626W        W68842  13.957  12.669   9.536 -0.0320  0.1452 -0.1390
37627W        W68843   1.324  12.236   9.855  0.1462 -0.3410 -0.2303
37628W        W68844  10.963  13.714   1.063 -0.0181  0.0433 -0.2435
37629W        W68845  20.606  11.488   1.078  0.1576 -0.1785  0.0323
37630W        W68846  14.808   9.448   1.859  0.0644  0.2880 -0.0685
37631W        W68847  20.095  24.228   2.299 -0.2471  0.0380  0.2211
37632W        W68848  23.759  15.478   2.637 -0.0221  0.3207 -0.3247
37633W        W68849   7.583  20.347   0.108 -0.0379 -0.3466 -0.0106
37634W        W68850   8.057  14.025   8.290  0.4023 -0.0092  0.2975
37635W        W68851  23.882  17.763   8.318 -0.4849 -0.2075 -0.1700
37636W        W68852  11.318  27.070   0.102 -0.0619  0.0598  0.1678
37637W        W68853  10.596  13.269   0.489 -0.0790 -0.0392 -0.1613
37638W        W68854  26.590   4.551   1.610 -0.2393 -0.0644 -0.0082
37639W        W68855   2.905   3.664   1.138 -0.0959  0.0864 -0.1175
37640W        W68856  27.039  14.338   2.606  0.0433 -0.0169 -0.0141
37641W        W68857  18.006   0.676   3.730  0.0657  0.3782  0.0138
37642W        W68858  27.504  25.051   8.554 -0.0961  0.0606 -0.0907
37643W        W68859  16.783   1.680   0.706  0.4303  0.1754 -0.1030
37644W        W68860   5.994  22.678   8.483  0.1576 -0.1057 -0.0844
37645W        W68861  22.398  17.646   0.073 -0.2490  0.0966  0.1518
37646W        W68862   5.739   1.305   0.555  0.3516 -0.0249 -0.0009
37647W        W68863  10.517  20.952   9.705  0.1021 -0.0925  0.0989
37648W        W68864  21.055  20.657   1.949 -0.1770  0.0166 -0.1775
37649W        W68865   2.521  19.784   9.369  0.2487 -0.0344 -0.1966
37650W        W68866  23.290   4.055   2.749  0.0478  0.0416  0.1014
37651W        W68867  22.603  20.183   8.221 -0.1153 -0.0013 -0.1115
37652W        W68868   3.647  16.850   1.339  0.1124 -0.0440 -0.0664
37653W        W68869  24.272  24.352   1.809  0.2904  0.0851 -0.2306
37654W        W68870   1.987   9.592   1.429  0.3348  0.1104  0.0648
37655W        W68871   0.512  18.525   3.814  0.0216  0.1999 -0.4335
37656W        W68872   5.506  15.393   2.113 -0.2071 -0.0517 -0.0141
37657W        W68873  11.268  12.904   9.093 -0.2822 -0.0068 -0.0159
37658W        W68874  13.087  26.036   0.044  0.0604  0.1378 -0.3861
37659W        W68875  18.985  12.064   7.930  0.1449  0.0660  0.0761
37660W        W68876  14.519   1.797   2.396 -0.0430  0.2315  0.0802
37661W        W68877   5.187  23.891   3.981 -0.1680  0.4455  0.0696
37662W        W68878  23.191   5.231   9.698 -0.1105  0.3597 -0.4018
37663W        W68879   3.533   3.717   0.135 -0.1964 -0.0198  0.2659
37664W        W68880   7.079  26.533   9.303  0.2288  0.0076  0.0656
37665W        W68881   8.925  15.015   0.585 -0.2802 -0.1773 -0.3456
37666W        W68882  14.432  17.421   2.828 -0.1475  0.2811  0.0152
37667W        W68883  17.042   7.585   2.243 -0.1027 -0.2889 -0.1582
37668W        W68884  10.065  24.292   9.849 -0.1096  0.0413  0.4410
37669W        W68885  27.024  22.924   9.164  0.0248  0.3630 -0.2095
37670W        W68886  21.366   7.916   9.695 -0.1885  0.0094 -0.2027
37671W        W68887   2.725  15.732   0.426 -0.0770 -0.0029 -0.0073
37672W        W68888  12.889   4.088   7.906 -0.4285 -0.0944  0.1553
37673W        W68889   1.265   3.845   0.802 -0.0864  0.3021 -0.2051
37674W        W68890  21.952  25.629   9.030  0.0660 -0.3200 -0.0437
37675W        W68891  14.877   3.643   3.430  0.0251 -0.0451 -0.1683
37676W        W68892  21.184   2.016   1.197 -0.1916  0.1793 -0.0890
37677W        W68893  11.149   4.794   9.195  0.1658  0.0818  0.1730
37678W        W68894   8.197  23.771   8.440  0.0409  0.2466  0.0142
37679W        W68895   1.281  10.182   9.228 -0.0285 -0.0520 -0.3522
37680W        W68896  22.949  10.780   1.551  0.0263  0.1035 -0.1477
37681W        W68897  20.082   7.519   0.793  0.0273 -0.2264  0.0063
37682W        W68898   8.391   9.517   8.083 -0.2595  0.0165 -0.0210
37683W        W68899  13.209  18.099   7.749 -0.1028  0.1509 -0.0617
37684W        W68900  18.694   7.018   1.718 -0.1382 -0.4085  0.0806
37685W        W68901  20.650  26.499   9.313  0.1327  0.0964  0.2671
37686W        W68902  10.544  24.210   1.940 -0.2330 -0.0792  0.1018
37687W        W68903   0.061  24.094   9.082  0.1145 -0.1871 -0.0490
37688W        W68904   8.159   2.837   2.737  0.1707  0.3608 -0.3348
37689W        W68905   6.413  21.797   9.990 -0.1567 -0.1051  0.1539
37690W        W68906   0.411  13.045   9.532  0.0680  0.2435 -0.1890
37691W        W68907   0.952   1.904   2.568 -0.0502 -0.0579 -0.4894
37692W        W68908  25.468  13.374   0.348  0.0580 -0.0129 -0.0307
37693W        W68909  15.569  25.892   1.587  0.1580  0.0375  0.0246
37694W        W68910  17.655   5.316   2.654  0.3917 -0.3745 -0.0834
37695W        W68911   2.415  15.422   2.429  0.1052  0.0164  0.0401
37696W        W68912  10.501  12.263   8.242  0.1673  0.1317  0.0529
37697W        W68913   8.428  11.815   0.213  0.0267 -0.0847  0.3510
37698W        W68914   8.366  26.042   2.861  0.0995  0.1038  0.0569
37699W        W68915   8.827  13.044   0.116  0.0553  0.3413 -0.0400
37700W        W68916  10.922  17.788   0.521  0.1832 -0.1242  0.0219
37701W        W68917  10.139  16.048   9.476 -0.0106 -0.3458 -0.3650
37702W        W68918  18.258  21.179   0.932 -0.0462  0.2981  0.0432
37703W        W68919   1.752   4.228   3.811 -0.0769 -0.1049 -0.4104
37704W        W68920   4.574  24.855   0.617 -0.2101  0.0335 -0.3231
37705W        W68921  10.478  24.669   0.484  0.1367  0.1568 -0.2388
37706W        W68922  18.834  20.809   0.355 -0.1321  0.2428 -0.3010
37707W        W68923  17.181   0.380   2.041  0.0500  0.2683  0.1699
37708W        W68924   3.933  12.436   8.237  0.3446  0.2971  0.2246
37709W        W68925  21.423  14.385   0.375  0.1667  0.2230  0.0633
37710W        W68926  23.004  10.103   2.426  0.1117 -0.0383 -0.0637
37711W        W68927   0.126   2.304   2.002  0.3500 -0.4589 -0.0304
37712W        W68928  25.223  12.951  10.107  0.0920  0.2426 -0.1220
37713W        W68929   2.088  21.959   9.953  0.1723 -0.1312 -0.0815
37714W        W68930  19.384   2.199   8.870 -0.0284 -0.1235  0.1715
37715W        W68931  21.212   2.701   9.854  0.1821 -0.0424 -0.0185
37716W        W68932  14.972   3.447   1.966  0.1156  0.1006  0.2038
37717W        W68933   7.736   2.051  10.433  0.1680  0.0895 -0.0158
37718W        W68934   3.210  24.515   3.652 -0.1114 -0.2706 -0.1881
37719W        W68935  11.598   0.483   2.447  0.0518 -0.0953 -0.0098
37720W        W68936  11.099  19.110   8.337 -0.1910 -0.0079  0.0819
37721W        W68937   9.106  21.103   2.354  0.1261  0.1553 -0.1781
37722W        W68938  23.698  10.088   9.521  0.1052  0.0249 -0.1621
37723W        W68939  16.828  16.259   1.028 -0.0487  0.1757 -0.2117
37724W        W68940  22.143   4.639   9.215  0.0601 -0.1199  0.0871
37725W        W68941   5.787   6.442  10.128  0.0246  0.0033 -0.0199
37726W        W68942   7.398  12.576  10.263 -0.0874  0.2918 -0.0371
37727W        W68943   4.778  24.404   1.814 -0.0284 -0.0557 -0.3408
37728W        W68944  14.099   3.196   0.710 -0.0004  0.4093  0.5125
37729W        W68945  14.820   1.681   1.120  0.0978  0.1056 -0.0303
37730W        W68946  15.915  27.217   8.409 -0.0671  0.1796 -0.3312
37731W        W68947   3.649  13.254   9.459 -0.2089 -0.2880 -0.2483
37732W        W68948  25.850  10.147   7.711  0.3012  0.3288  0.2635
37733W        W68949  16.048  18.551   7.428  0.2827 -0.1113 -0.4132
37734W        W68950  16.054  17.709   9.345  0.0173 -0.2380 -0.0709
37735W        W68951  17.495  10.199   2.788  0.3417 -0.0312 -0.1697
37736W        W68952  24.702   1.634   1.756  0.0223  0.2424  0.2091
37737W        W68953   2.080  20.364   0.425  0.1245 -0.1461  0.3084
37738W        W68954  21.070  12.018   9.134 -0.1762  0.4706  0.0151
37739W        W68955   9.777   0.740   2.977 -0.3653 -0.0176  0.2102
37740W        W68956  23.960  22.559   2.761 -0.2066  0.0347  0.0222
37741W        W68957  25.911   1.652   1.880 -0.1348  0.1933  0.0356
37742W        W68958  16.514   7.778   8.635  0.4246  0.1055 -0.1188
37743W        W68959  26.550  24.691   2.988 -0.0321 -0.1688 -0.3215
37744W        W68960  14.818   6.807   8.643 -0.3823 -0.0169 -0.0302
37745W        W68961   4.995   8.588  10.003 -0.1350 -0.0596  0.1714
37746W        W68962   6.667   5.871   9.878  0.0961  0.0779  0.0911
37747W        W68963  12.298  20.061   7.065 -0.5261 -0.0751 -0.2593
37748W        W68964  22.567  10.300   2.406  0.0216  0.1261  0.2320
37749W        W68965   5.664   5.557   8.735  0.1333  0.0851 -0.0478
37750W        W68966  15.643   6.256   7.797 -0.0709 -0.1542 -0.3296
37751W        W68967  25.284   4.030   9.842 -0.0557  0.0348 -0.0792
37752W        W68968  22.489  27.415   9.481 -0.2654 -0.1305  0.2600
37753W        W68969  26.519  17.924   9.649  0.1342 -0.1621 -0.2735
37754W        W68970  21.246  15.464   2.542  0.2470 -0.1545 -0.2057
37755W        W68971  11.474   1.030   8.548  0.2133 -0.2403 -0.0252
37756W        W68972   4.938  12.035   2.384  0.5024  0.4708 -0.1725
37757W        W68973   2.726  18.304   9.161 -0.1862 -0.1774  0.0396
37758W        W68974  19.206  11.858   8.713 -0.3482 -0.1136  0.0970
37759W        W68975   2.314  11.055   9.361  0.0346 -0.1658 -0.0298
37760W        W68976   1.785  12.840   8.400  0.0159 -0.3936  0.0129
37761W        W68977   2.690  21.477   9.715  0.1060 -0.1342 -0.1857
37762W        W68978  13.005  15.302   9.687 -0.1541  0.0368  0.3227
37763W        W68979  13.078  20.505   9.713 -0.1274  0.0615 -0.2313
37764W        W68980   8.974  11.764   2.797  0.2479  0.0777 -0.0112
37765W        W68981  12.912  11.065   0.602  0.3414 -0.2181  0.0012
37766W        W68982  17.989   0.280   0.841 -0.3155  0.3387  0.0601
37767W        W68983   0.737   0.418   2.609  0.0170 -0.0628  0.0804
37768W        W68984   4.854  16.251   1.494  0.0485  0.0205 -0.0962
37769W        W68985  20.164   0.485   0.480 -0.3196 -0.0414  0.0383
37770W        W68986   0.034  23.706   2.946  0.0398  0.0070 -0.0499
37771W        W68987  19.034  19.774   9.235  0.2592  0.2919 -0.0594
37772W        W68988   7.359  19.345  10.352 -0.2569  0.1694  0.0052
37773W        W68989  15.703  21.053   3.493  0.4069 -0.2609  0.2846
37774W        W68990  27.216   8.368   0.626 -0.0315 -0.2361 -0.2007
37775W        W68991  20.176   8.285   0.687 -0.2517 -0.0019 -0.0285
37776W        W68992   4.913   7.556   8.367  0.1587  0.0750  0.0801
37777W        W68993   9.107   2.603   3.398  0.1674 -0.0269 -0.2923
37778W        W68994   5.176  19.727   1.237  0.1081  0.0346 -0.2873
37779W        W68995   2.291  25.185  10.417  0.0708  0.0164  0.1385
37780W        W68996  12.274   4.213   8.765  0.0674 -0.2475  0.0088
37781W        W68997  17.168  19.506   1.534  0.2891 -0.0860 -0.2395
37782W        W68998   2.990  22.894   0.452  0.1371 -0.0190  0.3136
37783W        W68999  12.771  12.774   1.671 -0.2484  0.0452 -0.2437
37784W        W69000  14.537  11.857   1.983 -0.0705  0.0741 -0.0032
37785W        W69001   6.137  16.792   0.126  0.1627 -0.1674  0.0694
37786W        W69002  18.260  14.930   7.165 -0.1945 -0.3203  0.2468
37787W        W69003   1.266  21.923   0.179 -0.0185  0.1729  0.1062
37788W        W69004  21.704  14.985   8.694 -0.0064 -0.0235 -0.0105
37789W        W69005  22.192  15.154   1.141  0.2316 -0.0098 -0.0245
37790W        W69006   3.805   6.091   8.094  0.1489 -0.0333 -0.0624
37791W        W69007  12.934   4.801  10.162 -0.1152  0.2450 -0.1879
37792W        W69008   8.363  24.421  10.489  0.2717  0.3863  0.0117
37793W        W69009   0.012   9.689   0.582  0.1019 -0.4106 -0.2678
37794W        W69010  20.542  10.068   2.857 -0.1468  0.0212 -0.2189
37795W        W69011   4.391   7.338  10.009  0.1681 -0.2179  0.0749
37796W        W69012   2.417   5.763   2.577 -0.5238  0.0339 -0.1611
37797W        W69013  21.255  13.270   0.776 -0.0774 -0.2300 -0.0149
37798W        W69014  19.078  14.158   8.732  0.2274  0.1418 -0.0948
37799W        W69015  21.018  20.844   9.964 -0.1117  0.2384  0.0934
37800W        W69016   1.352  10.863   3.227  0.1820  0.0610 -0.0773
37801W        W69017   3.927  14.372   0.697 -0.0722 -0.1241  0.0005
37802W        W69018   8.726  14.744   3.336 -0.2454  0.0683  0.2111
37803W        W69019   9.543  13.469   9.714  0.1066 -0.2696 -0.1396
37804W        W69020   9.473   7.620   2.364 -0.1102  0.0271  0.2801
37805W        W69021   8.429  26.949   3.105 -0.5245  0.1050  0.1056
37806W        W69022   8.955  13.304   7.964 -0.1574  0.0576  0.2684
37807W        W69023   0.893  18.181   1.459 -0.1905  0.0800  0.0636
37808W        W69024  21.133  17.390   6.834 -0.2812  0.1126 -0.0273
37809W        W69025   0.201   1.224   2.930 -0.1696 -0.0709  0.0126
37810W        W69026  13.930  25.231   1.954  0.1042 -0.2145 -0.1127
37811W        W69027  24.556  14.897   3.079  0.0312 -0.3060  0.1984
37812W        W69028  21.914  15.745   3.123 -0.0511  0.1685  0.1520
37813W        W69029   9.094  26.912   1.638  0.0303  0.1686 -0.2386
37814W        W69030   0.565  21.004   3.228 -0.2709 -0.0710  0.0561
37815W        W69031  19.721  10.180   0.500  0.2643  0.0940 -0.0100
37816W        W69032  12.601  12.791   7.787 -0.0878 -0.0708 -0.0616
37817W        W69033  24.464   5.810   9.202 -0.0956  0.0059 -0.0486
37818W        W69034   8.859  12.498   2.060 -0.0706 -0.1258  0.0913
37819W        W69035   7.627  22.391   8.029 -0.0629  0.0524  0.3653
37820W        W69036  24.671  15.392   3.000  0.3461  0.0172 -0.0916
37821W        W69037   4.175   3.751   9.545 -0.1142  0.2303  0.0990
37822W        W69038   5.843   7.400   9.959  0.3197 -0.0548  0.0091
37823W        W69039  10.762   9.656   2.043 -0.4008 -0.1004  0.0536
37824W        W69040  10.742  10.630   3.175 -0.1469 -0.0630 -0.0327
37825W        W69041  24.583  14.614   7.548  0.1372 -0.1997 -0.1592
37826W        W69042  14.187   9.495   8.905 -0.3765  0.1461  0.2190
37827W        W69043   0.934  18.857  10.497  0.1022  0.0621  0.0616
37828W        W69044  12.873  21.156   2.992  0.1986  0.0521  0.3272
37829W        W69045  16.718   1.644   3.339  0.0573 -0.3467  0.0126
37830W        W69046   0.399  25.351   1.134 -0.0567 -0.0787 -0.2672
37831W        W69047   1.646   4.425   0.164  0.1967 -0.2846  0.2606
37832W        W69048  19.648  24.229   2.522  0.1536 -0.0779  0.2726
37833W        W69049   8.866   5.728   2.803  0.3086  0.0555  0.0265
37834W        W69050  20.454  17.918   0.473 -0.1013 -0.0671  0.0596
37835W        W69051  22.460  19.706   8.942  0.0283 -0.0726 -0.1009
37836W        W69052   3.789  13.321   1.437  0.2977  0.2181 -0.3008
37837W        W69053   8.119   9.922   3.358 -0.0114  0.1566 -0.1561
37838W        W69054   4.235   4.082  10.372  0.1892 -0.1641  0.1807
37839W        W69055  26.235  13.134   4.205  0.3252 -0.1528  0.2204
37840W        W69056   7.797  17.126   8.137  0.0591  0.0276  0.4144
37841W        W69057  25.362  17.322   2.002 -0.2263  0.0739 -0.2619
37842W        W69058  10.338  20.583   3.654 -0.2802 -0.2327 -0.0453
37843W        W69059  18.284  22.089   7.866  0.0608  0.0187 -0.2045
37844W        W69060  15.280  20.841   3.440  0.1376 -0.0428  0.1676
37845W        W69061   9.378   4.587   1.409 -0.1586  0.3439 -0.0203
37846W        W69062   2.705  26.260  10.420  0.1539 -0.2518 -0.0312
37847W        W69063  13.052  12.671   8.716 -0.2849 -0.0369  0.1583
37848W        W69064  20.644  24.131   7.986  0.2765 -0.0210  0.0135
37849W        W69065   6.857   7.219   7.559  0.4004  0.0262 -0.4116
37850W        W69066  26.646  23.643   3.590 -0.2032 -0.0176 -0.1368
37851W        W69067  26.039   9.924   0.303  0.1613 -0.1747  0.0230
37852W        W69068   8.712  17.388  10.473  0.1314 -0.2102 -0.2045
37853W        W69069  21.762   1.125   0.275  0.0515 -0.0138  0.0793
37854W        W69070   1.847  14.031   9.404 -0.2173 -0.1420  0.1189
37855W        W69071  11.891  22.575   1.048  0.1717  0.2838  0.0172
37856W        W69072  24.343  27.436   8.913  0.1810  0.1437  0.2876
37857W        W69073   2.752  26.425   8.634  0.0026  0.0178  0.1242
37858W        W69074  15.615   3.486   9.442 -0.3954  0.0075  0.1209
37859W        W69075  21.043   1.661   1.715  0.2596  0.0535  0.3088
37860W        W69076  17.870  26.106   2.202 -0.0040 -0.2876 -0.4523
37861W        W69077   9.811   7.738   8.215  0.1557  0.2390  0.0090
37862W        W69078  20.341  20.835   8.932  0.1779 -0.0413 -0.1754
37863W        W69079  16.577  21.379   1.826 -0.2191 -0.1037 -0.0004
37864W        W69080  13.384   1.261   8.480 -0.1040  0.1038 -0.2593
37865W        W69081  16.349  18.358   7.992 -0.0876  0.1608 -0.2246
37866W        W69082   0.445  10.518   4.017  0.5706 -0.2048  0.0003
37867W        W69083  12.766   2.797   1.650 -0.1536  0.1077 -0.2565
37868W        W69084  12.064   4.032   0.587  0.3528  0.1401 -0.2752
37869W        W69085   0.552  27.397   0.027  0.2548 -0.1651 -0.2656
37870W        W69086  20.121  23.997   0.667  0.3201 -0.0298 -0.0574
37871W        W69087  24.630  19.722   2.807  0.2147 -0.0773  0.0162
37872W        W69088   5.495  19.384   1.371  0.2734  0.2453  0.1247
37873W        W69089  11.226   6.799   9.378  0.0735  0.2215 -0.0033
37874W        W69090   7.379   6.830   2.180  0.2466 -0.1885  0.0582
37875W        W69091  14.057  19.661   9.431 -0.1099  0.1987 -0.0657
37876W        W69092   9.421  24.187   1.470 -0.2541 -0.0037  0.0099
37877W        W69093  24.148  26.152   1.003 -0.2486 -0.1003 -0.1691
37878W        W69094   9.138  27.204   1.216  0.0305  0.0094 -0.1504
37879W        W69095   1.597  12.308   0.275 -0.0864  0.1638  0.0364
37880W        W69096  26.478   4.535   3.290  0.0291  0.1088 -0.0642
37881W        W69097  17.210  14.031   1.218 -0.0037  0.1511  0.1859
37882W        W69098  13.403   6.011   2.139 -0.0952  0.0025 -0.1429
37883W        W69099  14.742  11.481   2.280 -0.0907  0.1270  0.1576
37884W        W69100   2.925  17.730  10.281  0.0703 -0.0084 -0.1061
37885W        W69101   2.323  14.906   3.408  0.2813  0.1948 -0.0531
37886W        W69102  18.444   6.945   2.523  0.0691  0.0452 -0.1211
37887W        W69103  22.328  23.539   8.693  0.0899  0.3122 -0.3419
37888W        W69104  21.420   0.822   9.742  0.1441 -0.0094 -0.1404
37889W        W69105  21.425   0.099   2.772  0.2882  0.3458 -0.0779
37890W        W69106   3.191  23.251   4.167 -0.0267  0.0639  0.0271
37891W        W69107   4.702   1.970  10.288  0.0068 -0.2119 -0.2291
37892W        W69108   3.470   7.471   9.395  0.2974  0.1692 -0.0687
37893W        W69109  26.834  26.117   0.807 -0.1229  0.2017  0.0351
37894W        W69110   0.193   8.944   2.507 -0.0284 -0.0919  0.0030
37895W        W69111   6.809  22.813   2.577  0.0945 -0.3233  0.1566
37896W        W69112  19.652  10.047   3.331  0.1480 -0.2479 -0.0442
37897W        W69113   3.960  20.273   2.492 -0.1211 -0.0312 -0.1118
37898W        W69114  12.803  27.301   2.265 -0.3791  0.1152 -0.1865
37899W        W69115  27.239  18.816  10.431 -0.1742  0.0861  0.1165
37900W        W69116  17.308  15.182   2.076 -0.1021  0.0161 -0.1679
37901W        W69117   6.702  27.049   3.103  0.3455  0.1566  0.3150
37902W        W69118  16.848   5.583   8.008  0.0117 -0.0720  0.1855
37903W        W69119   8.741   8.613   8.088 -0.2333  0.0959 -0.1615
37904W        W69120  15.370  19.681   9.947 -0.3258 -0.0747 -0.3384
37905W        W69121  12.270   7.351   0.150 -0.1012  0.2550 -0.1683
37906W        W69122  11.478  16.124   0.489 -0.1036 -0.3720 -0.0323
37907W        W69123  19.785   5.250   3.422  0.0082  0.1075 -0.2437
37908W        W69124  11.931   4.272   7.730  0.1093 -0.0128  0.0105
37909W        W69125  21.816  15.212   0.833  0.0583 -0.1747  0.0990
37910W        W69126  11.216  10.183   2.059 -0.0297  0.0056 -0.0909
37911W        W69127   8.140   6.421   7.104  0.2137 -0.2881 -0.1229
37912W        W69128  14.914  16.071   8.714  0.2689  0.0978 -0.2097
37913W        W69129   5.777   4.141   2.445  0.2502 -0.2125 -0.1927
37914W        W69130   8.822  12.915   9.259 -0.0458  0.2562 -0.1576
37915W        W69131   4.687  13.489   7.677  0.0005 -0.3140 -0.5846
37916W        W69132  14.487  14.651   8.386 -0.1974  0.3385 -0.0822
37917W        W69133  26.341   1.564   1.008  0.1978 -0.1667  0.3827
37918W        W69134  24.450  10.696   0.519 -0.1786 -0.1162 -0.1297
37919W        W69135  19.364   6.909   3.008 -0.0935 -0.1838  0.2886
37920W        W69136  23.096  24.562   2.797 -0.0745  0.0550 -0.0036
37921W        W69137  14.157  24.963   2.812 -0.1445  0.1441 -0.1256
37922W        W69138   1.039  22.353   8.744  0.0100 -0.2292  0.0957
37923W        W69139   0.111  10.100   0.986 -0.0261  0.0843  0.0807
37924W        W69140  18.092  20.082   2.019  0.0336 -0.0503 -0.2770
37925W        W69141  24.609   4.365   7.584 -0.2346 -0.1895  0.0947
37926W        W69142  13.163  19.688   9.535 -0.0913 -0.0013 -0.4187
37927W        W69143  16.169  10.767   1.399 -0.1368 -0.0561  0.0149
37928W        W69144   7.049   1.771   2.594  0.2987 -0.0108  0.0855
37929W        W69145  15.665  26.944   3.776 -0.1854 -0.0752  0.0211
37930W        W69146  11.241  22.201  10.086  0.0466  0.0940  0.1700
37931W        W69147  17.516  19.570   9.824 -0.2934  0.0596  0.2140
37932W        W69148   8.549  16.371   2.878 -0.5279  0.0271 -0.3008
37933W        W69149   9.866   1.046   1.442  0.2380 -0.2239  0.1801
37934W        W69150   0.593  14.796   2.656  0.1004 -0.0167 -0.1112
37935W        W69151  25.879   7.679  10.244  0.1376 -0.1561  0.0944
37936W        W69152  17.729   7.442   9.066  0.1172 -0.2410  0.2675
37937W        W69153  15.286  23.638   0.198 -0.0500 -0.0806 -0.1445
37938W        W69154   8.847  25.822   3.030 -0.1064  0.1614  0.1575
37939W        W69155  12.945  15.794   2.267  0.3096 -0.2688  0.1135
37940W        W69156  16.482   8.180   3.303 -0.1197 -0.2111 -0.0337
37941W        W69157   6.245   8.151   0.292  0.1185  0.5244  0.0502
37942W        W69158  10.727   9.417   3.292  0.0595  0.1668  0.1214
37943W        W69159  27.213  20.428   1.850  0.0776  0.2453  0.0052
37944W        W69160  16.656   0.456   9.360 -0.1042 -0.2352 -0.0792
37945W        W69161  14.487   6.433   2.784 -0.0611  0.0305 -0.2077
37946W        W69162  24.151   8.260   0.286  0.0822  0.0262 -0.0380
37947W        W69163  21.861  14.449   8.801  0.0972  0.1007 -0.0834
37948W        W69164   9.159  10.207  10.357  0.1466 -0.2655  0.1095
37949W        W69165  15.731  24.875   0.978  0.2517  0.1056  0.2070
37950W        W69166   3.560   3.871   9.848  0.1097  0.0355 -0.3321
37951W        W69167  14.267  24.335   8.486  0.2116  0.2202  0.2536
37952W        W69168   0.306  17.145   0.137  0.1585 -0.1574 -0.1701
37953W        W69169   0.651  17.878   2.756 -0.1133 -0.1695 -0.1419
37954W        W69170   9.428  14.811   9.642 -0.0072  0.0974 -0.0937
37955W        W69171  27.072   4.520   2.443 -0.0393  0.2799  0.2262
37956W        W69172   5.153   7.754   7.921  0.0897 -0.3133  0.1010
37957W        W69173   9.833  17.292   2.597 -0.0946  0.0972 -0.3129
37958W        W69174  18.804   5.714  10.531  0.0704  0.1479  0.3025
37959W        W69175  23.934  20.562  10.472 -0.0485  0.1277  0.0511
37960W        W69176  24.708  13.789   0.906 -0.1300  0.1459 -0.1782
37961W        W69177  23.707   9.725   8.527  0.0537  0.3335  0.0816
37962W        W69178  11.339  14.311   1.172  0.2005 -0.4141  0.1684
37963W        W69179   3.643  27.225  10.415  0.0758 -0.0513  0.3491
37964W        W69180  19.458   5.601   2.630 -0.0298 -0.0444 -0.0257
37965W        W69181   0.537   7.556   2.381  0.0894 -0.0194 -0.2521
37966W        W69182   1.087   9.771   0.615  0.1277 -0.1957 -0.1988
37967W        W69183   4.299   4.338   2.255  0.0254 -0.2012  0.2469
37968W        W69184   6.617  16.518   8.465 -0.0499  0.0338  0.1773
37969W        W69185   8.480  14.762   0.676 -0.1461  0.0415  0.4393
37970W        W69186   2.623  21.727   1.362 -0.0538 -0.2275  0.0683
37971W        W69187  20.065   7.918   9.090 -0.0994  0.0600 -0.0008
37972W        W69188   5.489   8.698   3.322  0.0278  0.0895 -0.0185
37973W        W69189   7.986   6.514   2.019  0.2567 -0.1515  0.1205
37974W        W69190  11.106  20.116   3.011 -0.3211  0.2279  0.1714
37975W        W69191  18.742  19.102   7.574 -0.0082  0.0599 -0.2340
37976W        W69192   3.156   5.442   9.072  0.0209  0.1894  0.1146
37977W        W69193   5.306  14.985   1.751 -0.1618 -0.0104  0.1147
37978W        W69194   7.608   0.331   0.462 -0.1546  0.1173 -0.1017
37979W        W69195   2.213   2.676   3.090  0.4338 -0.0466 -0.0777
37980W        W69196   6.449   8.147   1.277 -0.1327 -0.1893 -0.3305
37981W        W69197   2.259  14.043   8.130  0.1278 -0.0767 -0.0800
37982W        W69198  18.805  14.637   2.183 -0.3497 -0.1193  0.1292
37983W        W69199  14.055  14.809   1.334  0.1782 -0.0201  0.0365
37984W        W69200  24.187  27.122   8.023 -0.2834 -0.2033  0.0226
37985W        W69201   6.811   8.469  10.097  0.0577  0.2924 -0.0514
37986W        W69202   1.541  12.663   9.192 -0.1338  0.0388 -0.1912
37987W        W69203  25.016  19.832   8.785 -0.0422 -0.0938  0.1003
37988W        W69204  17.651  18.706   1.143 -0.0786 -0.0363  0.2635
37989W        W69205   8.424  22.872   0.020  0.1215 -0.3139 -0.1847
37990W        W69206  21.476  16.151   2.452 -0.2105 -0.0077 -0.1376
37991W        W69207  13.130   4.763   1.884  0.1586  0.1410  0.2100
37992W        W69208   3.651  10.732   0.519  0.0292  0.2484  0.0304
37993W        W69209   8.641   0.624   2.846 -0.2938 -0.1371  0.3145
37994W        W69210  14.944  16.286   1.100  0.0422  0.2003  0.0557
37995W        W69211  20.199   7.442   9.442  0.1592 -0.1073  0.1088
37996W        W69212   5.466  17.416   3.200  0.0785 -0.0117  0.1249
37997W        W69213  15.103  15.329   9.892 -0.0329  0.1169  0.0867
37998W        W69214  10.165  20.387   2.055  0.0465 -0.1301 -0.1380
37999W        W69215   8.668  22.604   0.395 -0.0240 -0.1252  0.1582
38000W        W69216  22.146   6.389   1.457 -0.2313 -0.0385 -0.0844
38001W        W69217  18.179  25.328   0.956  0.2311  0.0467  0.1938
38002W        W69218  10.882  10.826   8.339 -0.2088  0.1814 -0.0289
38003W        W69219  23.920   9.093  10.088  0.1662 -0.2476 -0.3545
38004W        W69220  14.355   3.063   9.442  0.0613 -0.1235  0.1235
38005W        W69221  23.465  15.792   2.039  0.1479  0.2712  0.0028
38006W        W69222   2.809  17.193   0.529  0.0055  0.0779  0.1588
38007W        W69223   9.004   6.449   9.275 -0.2675  0.2145 -0.0407
38008W        W69224  11.503  12.057   1.435  0.0353 -0.0114  0.0916
38009W        W69225  26.846   3.344  10.139 -0.2891  0.1008 -0.3470
38010W        W69226  18.297  11.840  10.510  0.3930  0.0809 -0.0278
38011W        W69227  15.714  25.562   0.054 -0.1038  0.0202 -0.1638
38012W        W69228   7.646  17.590   2.099 -0.2797 -0.0360  0.0292
38013W        W69229   6.820   3.195  10.120  0.1185  0.2310 -0.0455
38014W        W69230   1.121   9.639   3.305 -0.1215 -0.0161 -0.0139
38015W        W69231  16.307   4.639  10.509 -0.4058  0.1743  0.0656
38016W        W69232  17.564   7.629   7.916 -0.1410 -0.1131  0.0409
38017W        W69233   5.087   5.339   2.117  0.2392  0.2153 -0.0408
38018W        W69234  25.728  12.801   9.447  0.3465  0.0778  0.1347
38019W        W69235  19.235   5.281   1.741  0.3016 -0.1333  0.3049
38020W        W69236   9.962  16.460   8.093 -0.1093 -0.2516 -0.0971
38021W        W69237   1.645  23.963   1.135  0.1796  0.0728  0.2163
38022W        W69238  11.147   6.065   9.874 -0.1474 -0.0859  0.0536
38023W        W69239  15.102  27.108   8.865  0.0707  0.0111  0.1024
38024W        W69240   6.816  23.123   9.697 -0.5379  0.2459 -0.0722
38025W        W69241   9.345  23.101   2.849 -0.3707 -0.0969 -0.1855
38026W        W69242  16.820  11.726   3.591 -0.0565 -0.2654 -0.2205
38027W        W69243  22.477   7.385   8.464  0.0946 -0.0465  0.0376
38028W        W69244   8.044   9.757   0.017  0.0384 -0.0382  0.1357
38029W        W69245  14.235   2.693   3.257  0.0690  0.0911 -0.1856
38030W        W69246  27.249  24.910   1.493  0.0911 -0.0781 -0.2177
38031W        W69247  20.012   5.050   8.738  0.1719  0.0877  0.0372
38032W        W69248  27.239  15.833  10.126 -0.0370  0.0414 -0.0376
38033W        W69249  14.374  13.022   8.170  0.0964 -0.0177  0.2951
38034W        W69250  14.346   1.203   9.400 -0.0543 -0.0572  0.1640
38035W        W69251  20.911  22.100   2.580  0.0141 -0.0434 -0.1521
38036W        W69252  21.074  16.647   9.286 -0.0665  0.1077 -0.1952
38037W        W69253  13.549  25.555   1.309  0.2620 -0.3054 -0.0297
38038W        W69254   6.004  14.193   7.727 -0.2697 -0.0359 -0.0333
38039W        W69255  18.172  23.440   9.484  0.0137  0.0881 -0.0499
38040W        W69256   3.708  16.448   7.977  0.2537  0.1906 -0.0006
38041W        W69257   0.866   0.919   8.165 -0.0116  0.1065  0.1866
38042W        W69258  23.455  25.372   2.459  0.0557 -0.2502 -0.1194
38043W        W69259   0.467   7.997   3.193  0.1336  0.3820 -0.1430
38044W        W69260   9.338   9.333   9.960 -0.0184  0.2214 -0.2455
38045W        W69261   2.596  20.922   0.854  0.1419  0.0096  0.2219
38046W        W69262  21.048   0.321   7.885 -0.2981  0.0996 -0.0047
38047W        W69263  13.978  15.770   0.763  0.2845  0.0349 -0.1905
38048W        W69264  25.986  19.401   9.326  0.3236  0.1479 -0.0145
38049W        W69265  21.429   4.039   1.956  0.0215  0.2972 -0.0601
38050W        W69266   4.032   4.828   3.121 -0.1277 -0.0582  0.1113
38051W        W69267   5.609  12.005   0.017 -0.0183  0.0802  0.1347
38052W        W69268  17.295  13.255   7.736  0.0861 -0.2705 -0.1216
38053W        W69269  22.780   1.929   0.116  0.0708  0.1448 -0.1856
38054W        W69270  25.242  27.538   1.282  0.1636 -0.0153 -0.2921
38055W        W69271  19.413   0.494  10.342  0.3722  0.0565  0.1506
38056W        W69272  22.743  10.710   1.080  0.1909  0.1099 -0.1168
38057W        W69273  13.239  23.672   2.295 -0.2668 -0.0595 -0.0200
38058W        W69274   6.330  13.274   8.305 -0.2014  0.0335  0.3713
38059W        W69275   4.120  21.065   0.741  0.0687  0.0102  0.0002
38060W        W69276   4.896  25.327   2.013  0.0661 -0.2201  0.0539
38061W        W69277  24.419   2.227  10.424  0.1897  0.1068 -0.1025
38062W        W69278   8.793   3.238   0.913  0.1932  0.1360  0.2889
38063W        W69279  22.531   3.086   0.401 -0.2546  0.0137  0.2043
38064W        W69280   0.455   3.499   9.525 -0.0524  0.0263 -0.0106
38065W        W69281  16.912  11.400   0.073  0.0011 -0.1236  0.2492
38066W        W69282  26.512  23.313   0.392  0.1095  0.1580  0.1721
38067W        W69283   4.831  14.316   1.231  0.0449 -0.2002  0.0690
38068W        W69284   8.933   6.732   8.416  0.2167 -0.0224 -0.2021
38069W        W69285   5.990   3.044   9.162 -0.1500 -0.0662 -0.0127
38070W        W69286   3.738  16.821   9.203 -0.1135 -0.0798  0.0541
38071W        W69287  25.760   9.437   8.799  0.3860  0.0147  0.1824
38072W        W69288  16.867   6.435   7.776  0.0629 -0.2507 -0.1642
38073W        W69289  27.071   4.897   1.520 -0.2075 -0.1542  0.1582
38074W        W69290   9.682  10.171   8.716 -0.3255  0.0926  0.1276
38075W        W69291   0.161  17.873   9.178  0.1661  0.2019  0.0133
38076W        W69292  16.755   3.057   7.688  0.0155  0.0578 -0.2536
38077W        W69293  27.069   5.834   9.005 -0.3459  0.0400 -0.0976
38078W        W69294   0.160  11.718   9.276 -0.2000  0.0654  0.2778
38079W        W69295  22.965  22.383  10.157  0.0240 -0.4207  0.0080
38080W        W69296  18.167  11.424   9.037 -0.0219 -0.0088 -0.2401
38081W        W69297  14.770  16.552   1.477  0.3579  0.1357  0.0234
38082W        W69298  19.264   1.406   8.209  0.2424  0.0857 -0.2499
38083W        W69299   4.530  18.668   0.491 -0.0168  0.0010 -0.2304
38084W        W69300  23.228  14.724   7.457 -0.0060 -0.1085 -0.2063
38085W        W69301  19.176   6.594   3.359 -0.1888 -0.1690  0.0472
38086W        W69302   7.980  22.870   0.812  0.0996 -0.0229 -0.1100
38087W        W69303  16.584   1.313   2.918 -0.1272  0.0934 -0.1574
38088W        W69304  21.728   6.919   9.595 -0.0086 -0.0417  0.1692
38089W        W69305   0.928   6.033   1.971 -0.2223  0.0038 -0.2022
38090W        W69306   8.468  16.887   0.068 -0.4089  0.0223  0.2960
38091W        W69307   2.062  17.809   8.600 -0.1076  0.0602 -0.0405
38092W        W69308   7.533  17.123  10.093 -0.1682  0.4067 -0.3783
38093W        W69309  14.666  23.532   8.543  0.0779 -0.0662 -0.2367
38094W        W69310  26.202  14.939   0.146 -0.1002  0.0799 -0.2641
38095W        W69311   9.620  24.597   8.547 -0.3275 -0.2032  0.0455
38096W        W69312  14.241  12.311   0.418  0.2022  0.0942 -0.1269
38097W        W69313   0.200  15.009   2.481 -0.1168  0.1692  0.2099
38098W        W69314  17.190  15.902   1.514  0.1292 -0.0322 -0.1589
38099W        W69315   8.098  12.904   6.777 -0.3038 -0.2074 -0.0994
38100W        W69316   8.227  11.984   2.529 -0.2495 -0.0538 -0.3030
38101W        W69317  24.028  21.140   2.544 -0.0657  0.0727 -0.0933
38102W        W69318  15.593  25.890   1.091 -0.2408 -0.2536 -0.1555
38103W        W69319   2.252  20.495   8.213 -0.2554  0.0615 -0.0140
38104W        W69320   4.366  26.261   0.052 -0.0660 -0.3239  0.1628
38105W        W69321  13.958  24.233  10.331 -0.0374  0.1263  0.2981
38106W        W69322  21.654  17.531   7.502  0.1148 -0.2218  0.2012
38107W        W69323   1.422  26.530   8.654  0.5332  0.2607 -0.0960
38108W        W69324   3.987  20.791  10.087  0.1642  0.4315  0.2415
38109W        W69325  16.660   6.826   2.175  0.2251 -0.2626 -0.0925
38110W        W69326  16.290  24.012   3.334 -0.0806  0.1416 -0.4202
38111W        W69327  19.248  26.108   0.049  0.0157 -0.1912 -0.0017
38112W        W69328  26.853  27.092   0.448 -0.0427  0.1964  0.2075
38113W        W69329   4.151  12.116   0.591 -0.4069 -0.0552 -0.1411
38114W        W69330  17.444   3.842   0.517  0.1679  0.3255  0.1022
38115W        W69331  17.360   6.889   9.931  0.0182  0.1997 -0.1254
38116W        W69332   8.396   6.063   8.495 -0.0675  0.0364  0.0856
38117W        W69333   0.142  19.454   3.409  0.2260  0.3994 -0.1400
38118W        W69334  25.330   4.062   4.129 -0.1024 -0.0362 -0.0278
38119W        W69335  10.981  13.510   2.620  0.0937 -0.1540  0.0251
38120W        W69336  14.506  10.025   1.527  0.0586  0.0451  0.3341
38121W        W69337  18.901  17.248   8.057 -0.0582 -0.0723  0.0686
38122W        W69338   2.817  16.318   0.379 -0.1645  0.2033 -0.0833
38123W        W69339   8.540   8.616   9.839 -0.2243  0.2088  0.1124
38124W        W69340  14.423  26.079   3.441 -0.1998 -0.0684 -0.0291
38125W        W69341  14.902  19.635   7.486  0.0084 -0.2386  0.2170
38126W        W69342  15.292  22.688   0.489  0.2376  0.0507 -0.1507
38127W        W69343  11.496  22.804   9.349  0.0569  0.1405  0.2243
38128W        W69344   0.768   8.601   7.917  0.0868 -0.3006 -0.2037
38129W        W69345  21.571  14.798   0.601 -0.0632  0.2165 -0.1200
38130W        W69346  17.174   8.574   2.837  0.0754 -0.0776 -0.0720
38131W        W69347  20.874  14.124   7.697 -0.0064  0.3020 -0.0127
38132W        W69348   2.060  25.262   2.439  0.1268  0.0270 -0.3252
38133W        W69349  24.345  17.633   8.134 -0.0207  0.2189 -0.3064
38134W        W69350  12.076  10.817   8.791 -0.0991 -0.0293 -0.1371
38135W        W69351  18.305  13.359   0.453 -0.0287  0.0122  0.1280
38136W        W69352  22.496  14.286   0.674 -0.0588 -0.0370  0.0030
38137W        W69353  10.454   0.597   9.075 -0.0304  0.1734  0.3820
38138W        W69354  26.933   1.180   9.851 -0.1395  0.1103 -0.2304
38139W        W69355  19.922  12.563  10.283 -0.1046 -0.0935 -0.2596
38140W        W69356   7.964  13.630   7.946 -0.1996 -0.1940 -0.1947
38141W        W69357  23.149  11.485   0.134 -0.1113 -0.3134 -0.0371
38142W        W69358   6.613  12.371   1.470 -0.0790 -0.1561  0.1291
38143W        W69359  21.948  13.808   8.787  0.0501 -0.0846 -0.2075
38144W        W69360   5.744  18.056   1.683  0.2176  0.1025  0.1355
38145W        W69361  18.902   4.144   1.606 -0.2754  0.1359  0.1176
38146W        W69362  18.872  21.198   8.741  0.0983 -0.2226 -0.1072
38147W        W69363  25.314   3.006   2.402 -0.2268  0.0940 -0.3320
38148W        W69364  21.016  23.189  10.228 -0.0918  0.0983 -0.2297
38149W        W69365  10.073   4.990   8.849  0.0171 -0.0687  0.0537
38150W        W69366  19.122   0.363   2.130 -0.1495 -0.0828 -0.0613
38151W        W69367  17.465  12.292  10.265  0.2161  0.1323 -0.1110
38152W        W69368   2.511  10.850   8.896  0.1833 -0.0856 -0.1280
38153W        W69369  22.634  24.090   8.727  0.0509 -0.0135 -0.0292
38154W        W69370   3.920   7.173   0.170 -0.0915  0.2513  0.2559
38155W        W69371  21.497  12.504   1.631 -0.1378  0.0687  0.0107
38156W        W69372   7.361   7.070  10.160  0.0524 -0.0628  0.2436
38157W        W69373   2.685  26.251   9.871 -0.0966 -0.0099  0.0388
38158W        W69374   9.736   5.817   2.882  0.1202 -0.3343  0.1010
38159W        W69375   1.526  18.666   9.613  0.0963  0.0951 -0.0692
38160W        W69376  17.132  25.260   9.689 -0.0681  0.2706  0.1767
38161W        W69377  19.478  23.939  10.458 -0.0920 -0.2904 -0.0055
38162W        W69378  16.895  14.582   2.700 -0.1932  0.0933 -0.0657
38163W        W69379  20.083  22.384   0.746  0.3421 -0.2001  0.2956
38164W        W69380   7.697  15.118   1.812 -0.0955 -0.1317  0.0058
38165W        W69381  15.262   0.224   3.816 -0.1492 -0.0044 -0.1636
38166W        W69382  12.536  16.722   1.229  0.2543  0.2800  0.1110
38167W        W69383   3.133  11.886   3.675  0.0224  0.1377 -0.0487
38168W        W69384   8.024  16.169   1.798 -0.1678 -0.2418  0.0694
38169W        W69385   8.895  18.169  10.146 -0.0515  0.0113  0.1130
38170W        W69386   2.770   3.413   8.722 -0.3577  0.2606  0.0421
38171W        W69387   1.060  20.449   2.777  0.0620 -0.2077  0.0047
38172W        W69388  18.469  24.748   7.772  0.0946  0.3569  0.1315
38173W        W69389  25.562  10.536  10.482  0.2723 -0.1338 -0.0544
38174W        W69390  24.246   6.751   2.617 -0.2857  0.2119 -0.0263
38175W        W69391  27.458   6.110   8.834 -0.0303  0.1069 -0.0037
38176W        W69392  14.482  20.827   2.181 -0.0945  0.1035  0.0362
38177W        W69393  23.173  16.600   7.193 -0.2486 -0.0604  0.2235
38178W        W69394  18.152  10.743   0.604 -0.0183 -0.1494  0.0637
38179W        W69395  27.256   6.414   2.337  0.1777 -0.0772 -0.1506
38180W        W69396   3.796  18.951   0.091 -0.1056  0.0537 -0.1446
38181W        W69397  20.881  18.991   8.303 -0.0299 -0.2695 -0.1533
38182W        W69398   4.531   6.043   3.481  0.1034  0.2490 -0.0625
38183W        W69399  27.588  19.717   0.166  0.1998 -0.1081  0.2534
38184W        W69400  10.596  14.775   9.230 -0.0707  0.2067 -0.2890
38185W        W69401  17.155  26.755   2.610  0.5714  0.0229 -0.1286
38186W        W69402  12.402   8.743   8.767  0.0395  0.2263 -0.0218
38187W        W69403  20.731  15.535   3.159  0.1354  0.1701 -0.1492
38188W        W69404  13.585  27.360   2.933 -0.1335  0.1118 -0.1235
38189W        W69405   8.808   6.877   0.515  0.1672 -0.3371 -0.1932
38190W        W69406  13.660  13.599   8.539 -0.1422 -0.0537 -0.0753
38191W        W69407   4.531  10.929   2.027 -0.0762 -0.0654  0.1624
38192W        W69408  24.316  19.020   2.161  0.1059  0.0105 -0.1342
38193W        W69409   4.663   7.173   2.792 -0.0398 -0.0085 -0.0829
38194W        W69410   1.161  11.827   2.439  0.2595 -0.0437  0.1217
38195W        W69411  14.328   6.265   2.289 -0.0952  0.2153  0.1272
38196W        W69412  22.509   6.845   3.309 -0.1226 -0.0305  0.0016
38197W        W69413   4.459   4.426   0.763  0.2999  0.2517 -0.2925
38198W        W69414  25.204  27.292   0.253  0.1068  0.1653 -0.0848
38199W        W69415  27.458  27.596   8.716  0.4292 -0.1913 -0.1227
38200W        W69416   6.458  26.876  10.094 -0.3427 -0.1358 -0.2514
38201W        W69417   6.507   1.696  10.091  0.1646  0.4585 -0.0810
38202W        W69418   9.089  26.651   3.796 -0.4207  0.0363  0.1646
38203W        W69419  17.957  21.931   7.010 -0.0273 -0.0817  0.1348
38204W        W69420  24.019  18.692   1.945 -0.0080 -0.2660  0.1919
38205W        W69421  17.590   8.452   9.188  0.2957 -0.0851  0.0536
38206W        W69422  27.297  22.588   8.877 -0.0469 -0.0855  0.0127
38207W        W69423   4.501  21.548   9.482  0.0047  0.1041  0.0648
38208W        W69424   1.205  25.203   0.907  0.1747  0.0086  0.0732
38209W        W69425  23.456   9.347   8.294 -0.1121  0.1765  0.1309
38210W        W69426  22.868  25.765   9.840  0.0103  0.0384 -0.0604
38211W        W69427  16.782  14.724   7.117 -0.1615  0.3056 -0.0220
38212W        W69428  14.273  16.641   1.343  0.1396 -0.0848  0.3345
38213W        W69429  19.042   3.388   1.225 -0.0998  0.1157 -0.1499
38214W        W69430  26.168   6.556   9.529 -0.1779  0.0619  0.0289
38215W        W69431   1.338   3.346  10.397  0.2537 -0.2357 -0.0016
38216W        W69432   8.521  23.928   9.272 -0.1070 -0.4968 -0.4614
38217W        W69433  21.198  11.738   9.719 -0.1683 -0.1642  0.1176
38218W        W69434  23.842  23.940   1.088 -0.1962 -0.1972  0.3260
38219W        W69435  11.319  23.539   8.865  0.0195 -0.1807  0.0579
38220W        W69436   0.179   6.084   0.697  0.0423 -0.3054 -0.2901
38221W        W69437  21.235  15.553   7.133 -0.0427 -0.1905  0.0253
38222W        W69438   9.034  16.190   2.960 -0.1461  0.0038 -0.0388
38223W        W69439   7.371  27.031   2.130  0.1801 -0.1518 -0.1061
38224W        W69440  19.678  25.600   3.696  0.2980 -0.2467  0.1786
38225W        W69441  24.331  22.729   0.408 -0.1839  0.0008  0.1254
38226W        W69442   3.779  19.487   2.029  0.3545 -0.2572 -0.0623
38227W        W69443  12.084   6.638   2.605  0.2106  0.0126  0.1163
38228W        W69444  10.504   2.911   3.374  0.0880  0.1294  0.1440
38229W        W69445   2.952  27.285   2.939 -0.1651 -0.2103 -0.0896
38230W        W69446  24.077   4.216   0.126 -0.2455 -0.0251  0.0211
38231W        W69447  21.462   0.817   8.790 -0.0485 -0.1130 -0.0745
38232W        W69448  26.531   9.881   2.668  0.1735 -0.0808 -0.0587
38233W        W69449  14.263  11.015   3.421  0.1692 -0.0945  0.0248
38234W        W69450  15.618  24.961   8.791 -0.1328 -0.1159  0.3243
38235W        W69451  15.961  23.596   8.502  0.1425 -0.1365 -0.0407
38236W        W69452   4.785  24.863   8.875 -0.0486 -0.0716  0.2080
38237W        W69453   0.815   9.540   2.012 -0.1136 -0.2073 -0.1007
38238W        W69454  18.722   4.607  10.088 -0.0656  0.1229  0.3083
38239W        W69455  24.597  19.902   9.665 -0.0662  0.3252 -0.1402
38240W        W69456   9.592   7.286   9.453  0.1343 -0.1758  0.2047
38241W        W69457  19.174  11.855   9.301  0.0871 -0.3269 -0.0760
38242W        W69458   6.666  10.141  10.444  0.1118 -0.2179  0.4619
38243W        W69459  17.895  18.513   2.926  0.2875 -0.0591 -0.0663
38244W        W69460   3.348  13.013   9.882  0.0261 -0.2822 -0.0925
38245W        W69461  21.164  12.077   8.560 -0.1798 -0.1099  0.0968
38246W        W69462  22.977   8.955   8.115 -0.3157  0.0367 -0.1597
38247W        W69463  19.627  26.722   7.671 -0.3402  0.2421  0.1517
38248W        W69464  20.815  13.517   9.192 -0.0198 -0.0962  0.0746
38249W        W69465  13.474   3.484   1.851  0.3711 -0.0105 -0.1839
38250W        W69466   0.108  24.826  10.099 -0.0787  0.1601 -0.2315
38251W        W69467   5.857  21.805  10.150 -0.1586  0.0916  0.2917
38252W        W69468  13.424  14.889   1.797  0.0498 -0.1721 -0.0674
38253W        W69469  15.015  14.104   1.861 -0.0786 -0.0623  0.2837
38254W        W69470   9.190  16.314   1.652  0.1072  0.2500 -0.0331
38255W        W69471   2.856   0.063   7.811 -0.1380 -0.3791  0.0011
38256W        W69472   0.868   1.108   1.510 -0.2063 -0.2299 -0.0131
38257W        W69473  14.157   1.960  10.379 -0.0821 -0.2394 -0.3503
38258W        W69474   3.150   8.755   9.506 -0.1396 -0.0326  0.0848
38259W        W69475  19.945  17.909   2.543 -0.2815 -0.0126  0.2016
38260W        W69476  13.849  22.060   2.186 -0.1823 -0.2626 -0.2523
38261W        W69477  18.143   5.104   0.019  0.0623  0.0406  0.2268
38262W        W69478  10.440  16.569   1.308  0.0144 -0.0776  0.0752
38263W        W69479  21.971  21.268   8.676  0.0152 -0.0812 -0.1831
38264W        W69480   5.716  25.253   9.711  0.0299 -0.3244 -0.2016
38265W        W69481   3.068  19.672   0.595 -0.2029  0.0687 -0.2725
38266W        W69482   5.779  22.240   8.296 -0.2458 -0.0267  0.0870
38267W        W69483  24.386  20.301   8.194  0.3545 -0.2259 -0.3583
38268W        W69484   7.872  22.099   1.297 -0.2474 -0.0089  0.0338
38269W        W69485  12.126  21.406   0.263  0.1045 -0.1390  0.1593
38270W        W69486  26.784   8.344   8.988 -0.2578  0.1045  0.4805
38271W        W69487  14.689   2.518   3.323  0.2803 -0.0490 -0.3687
38272W        W69488  12.432  21.179   3.561 -0.1600  0.0266 -0.2027
38273W        W69489   9.161  25.013   0.081 -0.1081 -0.0414  0.1150
38274W        W69490  26.782   6.207   2.285 -0.1547  0.2220 -0.0709
38275W        W69491  26.510   9.437   2.332 -0.2350  0.1460  0.1629
38276W        W69492  21.441  11.070  10.257  0.3209 -0.1180 -0.3741
38277W        W69493  23.917  12.401   9.979 -0.3647 -0.0300  0.1126
38278W        W69494  12.312  25.116   2.888  0.2212  0.0910 -0.2427
38279W        W69495  22.659  25.150   0.544 -0.0838 -0.1656  0.0708
38280W        W69496   0.013  13.988   8.430  0.1617 -0.1911 -0.5180
38281W        W69497  12.332  19.903   8.254 -0.0979  0.0510 -0.0719
38282W        W69498  12.406  15.548   9.172 -0.1694 -0.0756  0.2796
38283W        W69499  26.843   3.145   8.896 -0.1409  0.5741 -0.0588
38284W        W69500  15.542   1.887   9.763 -0.1806  0.0584 -0.0457
38285W        W69501   2.058  18.739   8.502 -0.1883 -0.0075  0.1790
38286W        W69502  26.542  24.824   2.179  0.0042  0.4223 -0.1754
38287W        W69503   3.806  23.351  10.530  0.0054 -0.1872 -0.1235
38288W        W69504  10.695   6.304   1.717 -0.1828 -0.0186  0.2082
38289W        W69505   4.978  21.482   0.960  0.2449  0.0299 -0.0350
38290W        W69506  17.297  11.716   8.953  0.3395 -0.5436 -0.1120
38291W        W69507  17.399  18.055   3.466  0.0028  0.0918 -0.0713
38292W        W69508  20.951  19.905  10.238  0.0401  0.1516 -0.2011
38293W        W69509   5.771  20.570  10.368 -0.2205 -0.0310 -0.0666
38294W        W69510   3.162  14.036   0.061 -0.2780  0.1090  0.0581
38295W        W69511   2.856  20.882   1.618 -0.1122  0.2172 -0.1537
38296W        W69512  24.707  20.804   0.806 -0.0489 -0.4525  0.2449
38297W        W69513   1.127   2.795   9.122  0.1246 -0.3489 -0.1563
38298W        W69514   8.475  14.063   1.161  0.3036 -0.1250  0.3076
38299W        W69515  14.412   7.042   8.437 -0.4742  0.0755 -0.2582
38300W        W69516  24.792  10.557   2.538  0.1169 -0.1082  0.1314
38301W        W69517   1.134  14.645   8.063  0.1358  0.1410 -0.1950
38302W        W69518  14.399  23.763   0.041  0.0573 -0.1755 -0.1734
38303W        W69519   0.022  21.975   0.054  0.1542  0.0184  0.2381
38304W        W69520   5.969  22.709   1.970 -0.0692 -0.0338  0.2937
38305W        W69521   5.272  17.850   8.960  0.6005  0.0738  0.1122
38306W        W69522   8.219  13.455   9.495  0.1711  0.0770 -0.1238
38307W        W69523  15.350  11.685   9.474 -0.0451 -0.0841 -0.0107
38308W        W69524  25.331   3.228   3.286 -0.1915  0.2488 -0.0405
38309W        W69525   5.791  19.843   2.880  0.3552 -0.2283  0.0038
38310W        W69526  13.160  10.104   0.235  0.2070  0.1317  0.1376
38311W        W69527  10.594  20.103   9.222 -0.0571  0.2058 -0.0307
38312W        W69528   0.140  26.845   7.303 -0.0693  0.1908  0.3123
38313W        W69529  11.729   9.392  10.060 -0.0555  0.2596 -0.0705
38314W        W69530  20.522  26.979   9.449  0.0664 -0.3681 -0.0863
38315W        W69531  23.026  13.518   2.272  0.2211 -0.2416  0.0521
38316W        W69532  10.074  15.569   9.606  0.2777 -0.0258 -0.1137
38317W        W69533   9.435  17.845   8.117 -0.1079  0.1506  0.1963
38318W        W69534  20.038  18.757   3.151  0.0802  0.0806  0.1647
38319W        W69535  12.923  19.824   1.956  0.3588 -0.2255 -0.0322
38320W        W69536  21.813   6.400   0.234 -0.3273  0.0956  0.4197
38321W        W69537   2.881  20.558   1.163 -0.0278  0.1087 -0.0723
38322W        W69538  20.804  20.743   0.326 -0.1329 -0.1383 -0.0739
38323W        W69539   6.389   8.699  10.183 -0.1098  0.2367  0.0948
38324W        W69540  20.059  14.348   9.456  0.0466  0.2584  0.1350
38325W        W69541   5.029  25.395   2.488 -0.0679  0.0401 -0.1431
38326W        W69542   4.890   1.897   2.351  0.0336  0.1785 -0.1292
38327W        W69543   9.193  18.439   2.310 -0.1520 -0.0148  0.2770
38328W        W69544  12.973  25.670   8.175 -0.2249  0.3159 -0.3005
38329W        W69545  24.099  14.252   3.006  0.0132  0.0991 -0.0911
38330W        W69546   8.008  19.798   1.367  0.3012 -0.1130  0.2716
38331W        W69547  17.155   1.613   0.360  0.1649 -0.0025  0.0786
38332W        W69548  24.972  21.993   2.009 -0.2199 -0.2102 -0.0513
38333W        W69549  22.807  15.423   8.790  0.1097 -0.0455 -0.1949
38334W        W69550  25.829   5.962   9.892 -0.1702  0.1397  0.1469
38335W        W69551  11.295  17.149   3.888 -0.0265  0.0410  0.0722
38336W        W69552  10.261  22.806   1.791  0.0573 -0.1235  0.0417
38337W        W69553  19.633  16.495   2.368  0.0399 -0.0179 -0.1656
38338W        W69554   6.074   1.875   1.420  0.1781 -0.4393  0.3276
38339W        W69555   0.283   8.424  10.115  0.0317  0.0929 -0.1116
38340W        W69556  16.731  13.047   0.379  0.0512 -0.1998 -0.3861
38341W        W69557  22.290   0.668  10.237 -0.1593 -0.0429  0.0791
38342W        W69558  19.237  10.001   8.601 -0.2099  0.1206 -0.0016
38343W        W69559  26.231  23.561   0.894 -0.1521 -0.1574  0.2539
38344W        W69560  16.963   4.537   0.557 -0.0089 -0.0415  0.2647
38345W        W69561   1.426  13.642   3.337 -0.3652 -0.2007  0.2418
38346W        W69562   7.105  17.377   9.953 -0.2261 -0.3703  0.1920
38347W        W69563   1.229  25.022   2.248  0.2603  0.1937  0.1105
38348W        W69564   8.525  14.305   9.831 -0.4447  0.0807  0.0043
38349W        W69565  11.781   4.144   0.022  0.0572  0.2796  0.2641
38350W        W69566  19.470  27.263   7.953  0.0203 -0.1021 -0.0950
38351W        W69567   9.976   3.726   0.496 -0.1651  0.0770  0.0085
38352W        W69568  14.857   6.519   7.699 -0.0423  0.1473 -0.0616
38353W        W69569  10.934   4.542  10.057  0.1119  0.0078  0.1685
38354W        W69570  22.853   7.806  10.150  0.0092  0.0999 -0.2240
38355W        W69571   0.268   8.372   3.550 -0.1485 -0.1625  0.1291
38356W        W69572   2.739   5.873   8.876 -0.2184 -0.0344  0.1947
38357W        W69573   7.121   5.967   9.668 -0.2162  0.2456  0.3038
38358W        W69574  10.659  12.588   3.014 -0.0677  0.1496  0.0548
38359W        W69575  11.528   6.489   8.552  0.3144  0.0701 -0.1264
38360W        W69576  23.791  15.670   1.124  0.1429 -0.1066  0.2536
38361W        W69577  13.924  27.439   3.285  0.3146  0.1099 -0.2343
38362W        W69578   0.102  18.258   0.431 -0.2408 -0.0408 -0.1463
38363W        W69579  16.336  22.991   0.801 -0.1082 -0.0073 -0.3835
38364W        W69580  20.839  17.876   1.430  0.2399 -0.4913  0.1545
38365W        W69581  13.132   8.914   1.439  0.2230 -0.2161 -0.5053
38366W        W69582  11.870   1.270   3.391 -0.0659  0.2152  0.0853
38367W        W69583  16.555  20.241   2.611  0.1916 -0.1234 -0.0755
38368W        W69584  13.616  19.782   8.811  0.2050  0.2066 -0.1943
38369W        W69585  20.634  22.829   1.964  0.0930  0.0669  0.1169
38370W        W69586   6.708  16.589   2.369  0.0056  0.4355 -0.0327
38371W        W69587  14.931  12.800   0.030  0.1452 -0.2245 -0.1310
38372W        W69588  25.397  19.057   0.734  0.2152  0.0643 -0.0991
38373W        W69589  21.501  16.235  10.264 -0.0113 -0.4164 -0.1275
38374W        W69590  12.757   2.663   3.680 -0.0296 -0.3824 -0.1957
38375W        W69591   7.253  15.653  10.084 -0.1871 -0.1572 -0.1140
38376W        W69592   1.055   2.122   9.638 -0.0070  0.0860 -0.1262
38377W        W69593  12.069  19.384   0.837 -0.2503 -0.1670 -0.0038
38378W        W69594   2.409  13.386   8.305 -0.0299 -0.1089  0.2246
38379W        W69595   0.989   9.277   0.811 -0.2399  0.0987 -0.0220
38380W        W69596   2.901  12.175  10.442  0.0782  0.1425  0.1186
38381W        W69597  15.206  11.783   7.403  0.2148 -0.0232 -0.1721
38382W        W69598  17.134  12.504   8.502 -0.0230 -0.1547 -0.0008
38383W        W69599  23.770  17.261   3.563 -0.1491 -0.0342 -0.1753
38384W        W69600  17.865   6.023   7.822 -0.2651  0.1698 -0.1297
38385W        W69601  24.441  22.037   9.032  0.5485 -0.1930  0.1095
38386W        W69602  16.754   6.312  10.511  0.1228 -0.0033  0.0517
38387W        W69603  17.164  13.765   2.609  0.0645  0.0054 -0.3655
38388W        W69604  13.182  10.393   8.514 -0.2577  0.1482  0.1320
38389W        W69605   4.154   2.279   7.927 -0.0645 -0.1220  0.0931
38390W        W69606  25.990  13.275   8.932 -0.0646 -0.0552  0.3875
38391W        W69607  12.633  19.703   1.526 -0.0557  0.1514  0.0229
38392W        W69608  21.795   2.986   8.575  0.1714 -0.0717 -0.3045
38393W        W69609   0.062  22.864   2.561 -0.0009  0.1308  0.0625
38394W        W69610   2.083  10.016   1.723  0.1227 -0.2230 -0.1364
38395W        W69611  27.266   9.620   8.880  0.3590  0.0375 -0.2101
38396W        W69612  20.093  12.827   0.711 -0.2597 -0.3543  0.0045
38397W        W69613  24.637  19.410   9.956  0.0017  0.0082  0.0518
38398W        W69614  16.013   4.806   2.903  0.0737  0.0508 -0.0220
38399W        W69615   0.495   0.496   9.050 -0.3364  0.0114 -0.0458
38400W        W69616   8.812  14.408   8.394 -0.1671 -0.0499 -0.0222
38401W        W69617  14.199  21.042   1.799  0.1488  0.0334 -0.0929
38402W        W69618  23.353  22.110   1.220  0.0180 -0.0998 -0.1659
38403W        W69619  24.183  10.076   9.772  0.1869 -0.3081 -0.4017
38404W        W69620  21.760  24.335   9.984  0.3405  0.1015 -0.0413
38405W        W69621  24.156   6.381   1.895  0.0693 -0.3224 -0.3987
38406W        W69622  26.814  23.655   1.622 -0.1403  0.2694  0.3133
38407W        W69623  16.776   3.357   8.062 -0.1539 -0.3027  0.3931
38408W        W69624  22.215   1.028   0.691 -0.0591  0.1698 -0.0080
38409W        W69625   9.618  21.741   1.069  0.0534 -0.3003  0.0648
38410W        W69626  27.083   0.676   3.892  0.0095  0.2032  0.1051
38411W        W69627  18.620  24.134   3.424 -0.0097 -0.0517  0.0512
38412W        W69628   5.016   8.986   1.155  0.1398  0.1748  0.0377
38413W        W69629   1.780   6.452   8.355 -0.2770 -0.2541  0.0454
38414W        W69630   9.496  20.297   1.405  0.1632  0.1665 -0.0405
38415W        W69631  25.635  24.871   9.186  0.0575  0.1181 -0.6760
38416W        W69632   7.965  26.254   2.210  0.0638  0.0011  0.0338
38417W        W69633  19.605  23.808   9.621 -0.3386  0.3133 -0.3443
38418W        W69634  25.965  27.047  10.245 -0.2480  0.0843  0.2726
38419W        W69635  25.345  18.502   1.850  0.1494  0.0946 -0.1060
38420W        W69636  11.006   2.243   9.997  0.0913  0.2158 -0.3597
38421W        W69637  13.327  21.791   7.943  0.0599 -0.0814 -0.0887
38422W        W69638  11.209  16.797   8.360  0.1720  0.0527  0.1308
38423W        W69639  23.883  23.042   1.172  0.2474  0.3956 -0.5147
38424W        W69640  24.055   7.083   9.102  0.0978  0.0702 -0.4053
38425W        W69641   6.787  17.344   1.487  0.1553 -0.0573  0.0295
38426W        W69642  27.181  27.270   2.158 -0.0641  0.0224 -0.2017
38427W        W69643  23.371  13.711   1.074 -0.0036  0.0826  0.1831
38428W        W69644   1.258  21.166   9.938  0.0029 -0.0172 -0.0192
38429W        W69645  23.510  20.080   9.651  0.0803  0.0077  0.0123
38430W        W69646  11.526  18.491   0.416  0.2600  0.1245  0.1676
38431W        W69647   0.153   5.726   2.936  0.2377  0.1702 -0.1113
38432W        W69648   9.341  25.182   3.184 -0.1317  0.0599 -0.1015
38433W        W69649  16.231  14.490   8.251  0.0330 -0.2431 -0.0788
38434W        W69650  19.199  20.292   1.529  0.0323 -0.2661  0.0883
38435W        W69651  26.891  10.060   3.592 -0.0977 -0.2163  0.4332
38436W        W69652  18.674   8.359   9.713 -0.0591 -0.0444  0.1543
38437W        W69653   5.115   2.871   8.598  0.0048  0.0301  0.0455
38438W        W69654  18.241  17.945   9.437 -0.1306  0.2551  0.2277
38439W        W69655   7.891   5.444   1.315  0.3309  0.3008 -0.2112
38440W        W69656  15.044  12.353   1.970  0.2323  0.0018  0.0742
38441W        W69657  19.746  18.513   0.272  0.0117 -0.2225 -0.1214
38442W        W69658  26.630  23.528   2.465  0.2759  0.1911  0.2192
38443W        W69659  18.693  27.545   9.945 -0.0465 -0.1614  0.0968
38444W        W69660   3.419   9.914   1.256  0.0292  0.0583  0.1125
38445W        W69661   7.893  12.358   3.256  0.0904 -0.1719  0.0028
38446W        W69662   5.656   9.611   8.295 -0.0147  0.4261 -0.1343
38447W        W69663  25.533  16.548   1.419 -0.0349 -0.1112 -0.0023
38448W        W69664   9.256  26.492   1.250  0.1187  0.0200  0.1458
38449W        W69665   7.576  15.270   2.419  0.0717 -0.3453  0.2133
38450W        W69666  12.553  19.371   2.664 -0.0451 -0.0991  0.2488
38451W        W69667  15.855   6.762   9.443 -0.0960  0.2167  0.4173
38452W        W69668  22.498   6.943   2.067  0.0597 -0.2436 -0.1254
38453W        W69669   1.615  27.368   1.388  0.2167  0.0043 -0.1899
38454W        W69670  12.626  13.165   9.352  0.2373  0.1287  0.0113
38455W        W69671  16.836  22.211  10.519  0.1718 -0.0743  0.1656
38456W        W69672  18.180  17.428   1.477  0.3215 -0.2774 -0.1661
38457W        W69673   9.490   2.113   8.574  0.0612 -0.1109  0.1497
38458W        W69674  24.468  23.483   3.229 -0.3835  0.3104 -0.2108
38459W        W69675  11.449   0.712   8.190  0.2291 -0.3026  0.0567
38460W        W69676   3.802  25.634   1.658 -0.0608 -0.1303 -0.2628
38461W        W69677  13.877  13.587   9.017 -0.1466 -0.1612 -0.1859
38462W        W69678  27.338  22.346   0.774  0.1142 -0.0450 -0.0293
38463W        W69679  19.869  23.438   8.357 -0.0164 -0.1155  0.1660
38464W        W69680  13.477   6.539   9.514 -0.0217  0.3224  0.0294
38465W        W69681  25.023  21.871   0.024  0.0196 -0.0727 -0.1071
38466W        W69682  14.073  25.619   1.463  0.2687  0.0042 -0.0675
38467W        W69683  14.378  15.455   9.984 -0.0456  0.0501 -0.4587
38468W        W69684  17.210  22.850   1.588  0.2220 -0.0526  0.2463
38469W        W69685   0.142   6.725   1.437  0.2138  0.0995  0.3206
38470W        W69686  16.962  23.727   9.971 -0.0475 -0.0507 -0.0259
38471W        W69687  11.295  21.965  10.535 -0.0154 -0.0930  0.0450
38472W        W69688  15.613  13.754   9.498 -0.1957 -0.1270 -0.2337
38473W        W69689  15.289   0.474  10.268  0.1068 -0.0483 -0.1371
38474W        W69690  19.833  20.540   8.820  0.2703 -0.1601  0.0069
38475W        W69691  23.754  18.302   2.164 -0.0908  0.0753  0.0792
38476W        W69692   3.768   2.166   0.203  0.3007 -0.0772 -0.1661
38477W        W69693   7.064   6.756  10.415  0.0470 -0.2249  0.0868
38478W        W69694  13.467   4.139   9.560  0.0557 -0.0550  0.3546
38479W        W69695  10.618  19.304   9.020 -0.1036  0.3035 -0.1056
38480W        W69696   8.662  24.902   8.790  0.0353 -0.1110 -0.2775
38481W        W69697  11.539  14.349   8.339  0.1348  0.0055 -0.2559
38482W        W69698   4.943   5.893   8.656 -0.1100  0.4162 -0.0796
38483W        W69699   5.382  17.391   1.714 -0.0224 -0.0525 -0.0942
38484W        W69700  23.568   1.193  10.444 -0.1432 -0.3868 -0.2125
38485W        W69701  16.698  10.259   8.902 -0.0669  0.1487 -0.2007
38486W        W69702  16.072   8.597   9.846  0.1797 -0.0926  0.2994
38487W        W69703  22.138  21.334  10.287 -0.0385 -0.3516 -0.3629
38488W        W69704   2.934   6.554   9.902  0.4554  0.0215 -0.1207
38489W        W69705  15.193  20.221   0.849  0.0199 -0.0029 -0.0640
38490W        W69706  20.039  24.570   8.801  0.2413  0.2192  0.2525
38491W        W69707  13.911  18.589   0.293  0.2839 -0.1976  0.0649
38492W        W69708   3.542  15.020   8.140 -0.3343 -0.2207 -0.1135
38493W        W69709  11.811  25.356   9.357  0.1112 -0.1478  0.0809
38494W        W69710  22.173   3.530   3.906  0.0928 -0.2270 -0.0418
38495W        W69711  16.958  15.794   8.352  0.0193 -0.1914  0.1450
38496W        W69712   4.667  27.497  10.531  0.0995 -0.1407 -0.0551
38497W        W69713  19.354  26.673   0.864  0.3193  0.0832 -0.2033
38498W        W69714  14.015  26.613   1.959  0.1036  0.4581 -0.2272
38499W        W69715   9.010   9.540   1.179 -0.0029 -0.2179  0.0771
38500W        W69716   0.768  13.112   2.395  0.2504  0.0634  0.2026
38501W        W69717  23.543   3.592   2.877 -0.1150  0.0282 -0.0313
38502W        W69718  17.207  17.873  10.081  0.2389 -0.1363  0.0201
38503W        W69719  16.150   0.404   9.534 -0.2965 -0.1689 -0.2959
38504W        W69720  16.728  21.043   8.479 -0.0835  0.0104 -0.1178
38505W        W69721   9.655  18.746   2.198 -0.2793  0.1360  0.0420
38506W        W69722   7.364   9.578   1.318  0.0488  0.1406  0.3115
38507W        W69723  17.581  11.190   1.058 -0.0794  0.2527 -0.1649
38508W        W69724   0.934   2.336   3.060 -0.1755  0.0336 -0.0048
38509W        W69725  17.645   6.423   7.076 -0.2067  0.3261  0.0969
38510W        W69726   2.134  19.679   8.102 -0.1043  0.0031 -0.0997
38511W        W69727   3.140  15.635   0.737  0.2220  0.1458  0.0542
38512W        W69728   8.009   1.428   2.359 -0.0415 -0.0600 -0.0918
38513W        W69729  13.642   9.773   1.756 -0.2071  0.0377 -0.2163
38514W        W69730   7.452  12.584   7.629  0.0087 -0.1070 -0.1281
38515W        W69731   8.178   6.095   9.790 -0.3576 -0.0517 -0.2745
38516W        W69732  21.163   9.285   9.096  0.2250  0.0178 -0.0728
38517W        W69733   9.810   4.253   9.209 -0.0792  0.0790 -0.1467
38518W        W69734   7.626  19.354   8.626  0.2574  0.1110 -0.0901
38519W        W69735   5.860   6.314   2.298 -0.0337  0.1097  0.2252
38520W        W69736  14.633  10.674   3.222 -0.1578 -0.1207  0.1740
38521W        W69737  14.937  13.285  10.488  0.1878 -0.0719  0.2119
38522W        W69738   8.817  20.723   9.344 -0.1525 -0.1177  0.0397
38523W        W69739  15.948  17.393   8.406 -0.0189  0.2575  0.0996
38524W        W69740  12.990  21.788   0.298  0.2447  0.1193  0.0344
38525W        W69741   0.518   9.550   0.753  0.1374 -0.1454 -0.3578
38526W        W69742  16.237  26.255   2.737  0.0050  0.0150 -0.2080
38527W        W69743   6.768   2.182   2.799  0.4238 -0.0204  0.0436
38528W        W69744  13.682  14.444   0.037 -0.2279  0.1914 -0.0796
38529W        W69745  22.590  12.075   1.342  0.3695  0.2302  0.0783
38530W        W69746   9.108   8.264  10.472  0.2551 -0.2282 -0.0809
38531W        W69747  15.634   1.199   0.027  0.1979  0.3400 -0.1949
38532W        W69748  10.974  27.304   2.681  0.0908 -0.2501 -0.3331
38533W        W69749  23.455  20.766   3.035 -0.0010  0.1413  0.1993
38534W        W69750  12.988  25.226   9.152 -0.1826 -0.0470  0.1201
38535W        W69751  26.196  15.810   1.673 -0.1347  0.0507 -0.0397
38536W        W69752  19.265   0.974  10.283 -0.0660 -0.0157  0.1794
38537W        W69753   1.256   4.574   2.567  0.2209 -0.2086 -0.1274
38538W        W69754  22.792   1.469   3.115  0.1126 -0.0623  0.1575
38539W        W69755   3.078  20.909  10.132  0.1822  0.1376 -0.2051
38540W        W69756   3.181  21.951   8.503 -0.0831 -0.2080 -0.2808
38541W        W69757  20.599   7.201   9.647  0.1647 -0.1725 -0.0093
38542W        W69758   2.975   6.152   2.169  0.1314 -0.2592  0.0424
38543W        W69759   8.714   3.080   9.359  0.3478 -0.2348 -0.1715
38544W        W69760   7.013  12.978  10.366  0.2561 -0.1517 -0.2039
38545W        W69761   2.832  23.284   9.357 -0.2527  0.0298  0.0511
38546W        W69762  23.618   7.690   1.593 -0.1552  0.0758  0.0282
38547W        W69763  13.213  12.355   2.848  0.0766 -0.0817 -0.0014
38548W        W69764  25.317   2.635   7.781  0.0335  0.1384 -0.1098
38549W        W69765   8.927  16.458   9.017  0.0195  0.0854 -0.0592
38550W        W69766   0.750  11.868   9.164 -0.1981  0.0673  0.1703
38551W        W69767  17.568   7.554   0.779  0.1582 -0.0398 -0.0424
38552W        W69768  18.701   3.220  10.315  0.2714  0.0289  0.3017
38553W        W69769  24.881  26.280   7.888 -0.1794 -0.1755 -0.0250
38554W        W69770  16.615   8.459   2.676 -0.1393 -0.2850 -0.0733
38555W        W69771   3.233   1.960   7.689  0.0868 -0.1481  0.0229
38556W        W69772  14.432  15.477   1.781  0.0083 -0.0939  0.3752
38557W        W69773  17.011  11.471   9.268  0.0447 -0.1003 -0.1293
38558W        W69774   0.067  10.613   0.114  0.1713  0.3482 -0.0591
38559W        W69775  25.894   3.513   0.554 -0.1922  0.2782 -0.3004
38560W        W69776  13.820  18.850   9.810 -0.1361 -0.0167  0.2735
38561W        W69777  13.890  12.150   0.744 -0.1990  0.1399  0.0978
38562W        W69778   4.085  21.731   7.882 -0.2300 -0.1803 -0.0709
38563W        W69779  22.907   4.441   0.855  0.2732 -0.0452 -0.0850
38564W        W69780  13.579  12.135   2.628  0.0636  0.0072 -0.0825
38565W        W69781  12.126   9.151  10.378  0.3332 -0.0391  0.1806
38566W        W69782   6.380  22.469   1.185  0.2508  0.0298  0.1686
38567W        W69783  26.121  12.222   1.789  0.3391  0.1914  0.3328
38568W        W69784  20.925   5.574   2.903 -0.2011 -0.4956 -0.2002
38569W        W69785  14.819  17.084   1.731  0.1241  0.0923  0.1949
38570W        W69786  23.641  14.904   1.982  0.2526  0.1797 -0.0832
38571W        W69787  23.964  25.310   9.236 -0.1255 -0.0317  0.1680
38572W        W69788  15.555   9.219   8.392 -0.1618  0.1327  0.0441
38573W        W69789  18.959  23.473   1.166 -0.1118 -0.1236  0.3438
38574W        W69790  14.396   9.516   2.799  0.3906  0.0883 -0.2308
38575W        W69791  19.297  11.527   9.618 -0.1038  0.1178 -0.1354
38576W        W69792  22.835   7.322  10.381 -0.2622 -0.2283  0.0584
38577W        W69793  15.534  22.599   2.492 -0.3569  0.0769 -0.2109
38578W        W69794  21.561  13.763   3.379  0.1709 -0.0539 -0.1538
38579W        W69795  14.389  22.307   2.055 -0.0635  0.2611  0.0389
38580W        W69796  23.084  23.843  10.387 -0.0856 -0.1393 -0.0148
38581W        W69797  16.120  22.020   2.586  0.0383 -0.0586 -0.1446
38582W        W69798  25.225  26.176   0.753 -0.0681 -0.2600 -0.3836
38583W        W69799  18.552   8.112   0.418  0.3129 -0.0162  0.0703
38584W        W69800  24.840  13.311  10.093 -0.0399 -0.1139  0.0435
38585W        W69801  16.282  10.788   3.392 -0.1009  0.0079 -0.3250
38586W        W69802   0.882  10.411  10.507 -0.0964 -0.4093  0.1057
38587W        W69803   0.043  24.228   2.637 -0.1799 -0.0418 -0.1182
38588W        W69804   4.690   8.082   1.804 -0.4751  0.2054  0.1560
38589W        W69805  17.756   9.343   7.722  0.0375  0.0690  0.1181
38590W        W69806  16.147  21.248   9.673  0.1800  0.2651 -0.2905
38591W        W69807   6.564  10.418   7.351 -0.4109 -0.0179  0.0865
38592W        W69808   0.802  20.887   8.023  0.1011  0.1049  0.0260
38593W        W69809  22.553  15.541   3.264 -0.0034  0.2656 -0.1042
38594W        W69810   1.146  25.649  10.302  0.2094  0.0315  0.0381
38595W        W69811  16.620  18.244   9.004 -0.3798  0.4232 -0.0488
38596W        W69812  17.183   3.326   0.571 -0.0313  0.0315  0.2501
38597W        W69813   8.546   2.611   3.505 -0.2482 -0.0157 -0.0925
38598W        W69814  24.145   2.238   9.810 -0.2037 -0.0968 -0.0461
38599W        W69815  16.441  26.645   2.945  0.2704 -0.3313 -0.1291
38600W        W69816   8.874   8.341  10.031  0.5475  0.1231 -0.0291
38601W        W69817   0.855  10.810   2.041  0.1066  0.0875 -0.0023
38602W        W69818   4.903  14.171  10.004  0.1893  0.0765  0.0716
38603W        W69819   7.154   1.039   1.275 -0.0252 -0.3060  0.3477
38604W        W69820  17.056   8.757   1.020 -0.3357  0.1973 -0.1559
38605W        W69821  25.951  24.242   9.915  0.1756 -0.0912 -0.4699
38606W        W69822  27.132  22.797  10.414 -0.1635 -0.1826  0.0650
38607W        W69823  10.393   1.709  10.244 -0.4125 -0.2303 -0.0932
38608W        W69824   7.716   4.426   2.273  0.0992 -0.1854  0.3243
38609W        W69825  26.618   8.149   3.983  0.1946 -0.2372 -0.2138
38610W        W69826  26.575  21.384   2.369  0.0883  0.1836  0.1491
38611W        W69827   6.716   6.426   0.683  0.3514 -0.3569 -0.0654
38612W        W69828   3.610  14.122   8.572  0.0535  0.2615  0.1830
38613W        W69829  24.751  23.825   3.098 -0.4733  0.1482 -0.0246
38614W        W69830   4.195  15.908   2.192  0.1037 -0.0091 -0.2102
38615W        W69831   8.291  19.721   0.892 -0.0477 -0.0020 -0.1003
38616W        W69832   9.960  22.014   2.698 -0.0812 -0.1306  0.0134
38617W        W69833   0.097  12.505   9.540 -0.0734  0.0471  0.1355
38618W        W69834   8.417  12.898   8.805  0.3231  0.3110  0.3284
38619W        W69835  15.696   5.333   7.601 -0.0305 -0.1279 -0.0987
38620W        W69836  16.879  26.836   3.954  0.2763 -0.3560 -0.0300
38621W        W69837  23.114   8.455   2.666  0.0337 -0.4105  0.0239
38622W        W69838  26.041  11.075   9.109 -0.4177 -0.0356  0.1054
38623W        W69839  27.523  25.667   2.783 -0.0400  0.1389  0.2778
38624W        W69840  15.557  11.268   9.757  0.1863  0.1041  0.0862
38625W        W69841  26.428   9.393   0.979 -0.0301 -0.0358  0.2370
38626W        W69842  27.338  21.103   3.085  0.0768 -0.0753 -0.2517
38627W        W69843   9.642  25.445   2.869 -0.1034 -0.1359  0.0519
38628W        W69844  13.580   6.195   7.621  0.3179  0.0190  0.0449
38629W        W69845   8.025  19.597   8.809 -0.1258  0.0399 -0.0622
38630W        W69846   6.593   7.482   7.918 -0.3096 -0.1457 -0.1348
38631W        W69847  12.599  25.931   0.146  0.1260 -0.1309  0.2890
38632W        W69848   0.399  17.331   1.237 -0.2119 -0.1897 -0.0929
38633W        W69849  19.018  13.754   2.772  0.1110  0.0516  0.1714
38634W        W69850  23.133   4.157   8.835  0.3148 -0.0014 -0.0803
38635W        W69851  15.356  24.012   0.572  0.0671 -0.0054 -0.2286
38636W        W69852  15.722  19.066  10.100 -0.2692 -0.3075  0.0197
38637W        W69853   0.226   1.364   8.251 -0.3088  0.0770 -0.0139
38638W        W69854   1.751  22.013   2.133  0.1819 -0.0937  0.2279
38639W        W69855  17.657  21.142   1.645  0.5934  0.1380 -0.1566
38640W        W69856  13.048  20.898  10.047 -0.2271  0.3372  0.1833
38641W        W69857  11.641  17.339   2.773  0.1361  0.0147 -0.4775
38642W        W69858   1.317  10.977   2.049 -0.0765  0.2462 -0.2975
38643W        W69859  11.823  23.064   0.900 -0.1210 -0.3802  0.0846
38644W        W69860   0.452   5.664   9.942  0.0483 -0.1532  0.2113
38645W        W69861  19.489  26.582   8.850  0.1963  0.1491  0.0967
38646W        W69862  24.698   3.602   7.301  0.2512 -0.3302  0.4580
38647W        W69863   9.826   3.070   2.308 -0.0413  0.1573 -0.0854
38648W        W69864  14.834   6.872   0.827 -0.2637  0.1857  0.3959
38649W        W69865  14.024  21.553   0.198 -0.0021 -0.1427 -0.1667
38650W        W69866   7.223   5.462   0.857 -0.0752  0.0161  0.3083
38651W        W69867  13.191   6.235   9.845 -0.1567 -0.3056 -0.1402
38652W        W69868   2.704   4.820   2.928  0.4014 -0.0061  0.1053
38653W        W69869  10.397   5.112   8.417  0.2137 -0.0408  0.2995
38654W        W69870  27.470   1.208   9.080  0.1025  0.2624 -0.0264
38655W        W69871  11.930  22.291   9.886 -0.0667  0.0950 -0.0844
38656W        W69872  26.185   4.054   1.793  0.0902 -0.1963 -0.0189
38657W        W69873  10.455   3.401   8.281  0.0395  0.6602 -0.0255
38658W        W69874  12.291  14.464   9.827 -0.1430  0.1521  0.0126
38659W        W69875  10.253   5.822   0.376  0.0297 -0.1037  0.0539
38660W        W69876  16.866  10.964   0.395 -0.1450 -0.0018  0.1127
38661W        W69877  21.663  11.823   3.397  0.1527 -0.2998 -0.0125
38662W        W69878  16.222  24.612   0.846 -0.0824  0.1370 -0.1122
38663W        W69879  19.626  26.124   8.586 -0.2119 -0.1352  0.1796
38664W        W69880  25.077  22.201   8.633  0.0094 -0.1044 -0.2180
38665W        W69881  14.278   2.357   9.008 -0.3014 -0.0754 -0.1257
38666W        W69882  24.065  26.408   9.634  0.1853 -0.0350  0.2301
38667W        W69883   0.200  13.704   2.717 -0.0393 -0.3650 -0.1171
38668W        W69884  12.769  22.550   1.771  0.0381 -0.0336 -0.0115
38669W        W69885  25.485  25.627   1.878  0.1033  0.1574  0.1997
38670W        W69886  14.867  20.361  10.153  0.0853  0.2801 -0.0086
38671W        W69887  12.281  21.445   7.652  0.5385  0.4315 -0.0106
38672W        W69888  17.471  25.809   2.046 -0.3473  0.1863 -0.1287
38673W        W69889  13.214   1.547   8.120  0.0898 -0.0316 -0.1048
38674W        W69890  13.605  14.014   3.117 -0.1502 -0.3126 -0.0621
38675W        W69891   8.873  25.380   3.217  0.0257 -0.3214 -0.3443
38676W        W69892  23.479   3.807   8.650 -0.0336 -0.1726 -0.0582
38677W        W69893   1.524  24.135   9.625 -0.0378 -0.1790 -0.0611
38678W        W69894  13.593  18.107   8.336 -0.3113 -0.0601  0.1595
38679W        W69895   3.326  16.068   9.720  0.0316 -0.0991  0.0946
38680W        W69896   9.090  25.054   1.056 -0.1037 -0.0228  0.0433
38681W        W69897   1.798  17.141   8.353  0.1052  0.1443 -0.1224
38682W        W69898  16.164  19.925  10.094  0.2124 -0.1149  0.2004
38683W        W69899   3.557  15.605   1.554  0.0849 -0.3541 -0.0028
38684W        W69900   1.224  23.780   0.918 -0.0525  0.0088 -0.1517
38685W        W69901   6.673  25.460   1.032  0.2076  0.0029  0.0371
38686W        W69902  21.992  27.210   1.354  0.2851  0.1978 -0.0216
38687W        W69903  10.245  18.315  10.347 -0.0124  0.1392 -0.0294
38688W        W69904   6.972  12.127  10.152  0.1367 -0.2835  0.1185
38689W        W69905  24.173  10.986   8.070  0.0182  0.1619 -0.0467
38690W        W69906  25.401  18.665   8.154 -0.0786 -0.0087  0.0504
38691W        W69907  20.473   2.899   8.696  0.2861 -0.0263  0.0816
38692W        W69908   8.921  12.250   0.563 -0.4615 -0.2639  0.2269
38693W        W69909   4.136  22.556   3.390 -0.1824  0.1703 -0.0454
38694W        W69910  10.545   5.744   2.442 -0.1470  0.4375  0.2292
38695W        W69911  25.368  18.834   8.874 -0.2020  0.0460 -0.2797
38696W        W69912   5.751   9.772   9.582  0.1253  0.1098 -0.0894
38697W        W69913   0.305   6.827   3.490  0.0021 -0.0424 -0.0569
38698W        W69914   0.937  15.159   8.665  0.2237 -0.3504  0.3385
38699W        W69915   4.997  18.701   1.198 -0.0421 -0.4935  0.2862
38700W        W69916   8.819  21.293   9.722  0.1162  0.0047 -0.4761
38701W        W69917  22.990  11.416   2.395  0.0781  0.2707 -0.3206
38702W        W69918  10.916  17.352   8.092  0.0657  0.2175  0.0683
38703W        W69919  16.003  24.908   1.817  0.2316  0.3008  0.1099
38704W        W69920   6.472  16.704   8.926  0.1146 -0.1279 -0.0517
38705W        W69921   9.376  25.918   8.244  0.3879  0.0661  0.2457
38706W        W69922  27.008  10.069   8.857 -0.1644  0.1830 -0.3627
38707W        W69923   5.533  23.442   9.611 -0.1841  0.2839 -0.1351
38708W        W69924  10.046   5.545   9.118  0.1617 -0.1826 -0.3166
38709W        W69925   6.056  11.782   9.849  0.0093  0.1915  0.1471
38710W        W69926  20.067   5.740   9.441  0.0565  0.1834 -0.0437
38711W        W69927   7.352   5.943   1.897  0.1850  0.3193  0.0568
38712W        W69928   9.341  23.914   0.468  0.1434  0.1524  0.2714
38713W        W69929   9.851  21.163   0.257  0.2318 -0.0143  0.0973
38714W        W69930  14.360  20.267   1.796 -0.1243 -0.0096  0.0336
38715W        W69931   3.989   1.210   1.330 -0.0413  0.0752  0.1577
38716W        W69932   8.388   9.702   8.605  0.5090  0.1686  0.1179
38717W        W69933  25.173   8.531   3.671 -0.1235 -0.4007 -0.3197
38718W        W69934   9.935   3.913   2.278 -0.0058 -0.1795  0.1999
38719W        W69935   0.153  14.675   2.956 -0.1415  0.0077  0.1868
38720W        W69936  18.263  24.067   3.084 -0.3689 -0.0026  0.2423
38721W        W69937  15.404  16.591   1.076  0.2342 -0.3727  0.0522
38722W        W69938   5.087  12.541   7.411  0.0944  0.0073 -0.2108
38723W        W69939  14.472   9.618   0.243  0.1054  0.1319  0.0608
38724W        W69940  15.328   4.662   0.900  0.1627 -0.1668 -0.0069
38725W        W69941  12.885  21.406   1.471 -0.0196  0.0190  0.1405
38726W        W69942   6.922   9.267   1.520 -0.0385  0.2062 -0.0671
38727W        W69943  22.872  21.236   8.957 -0.2719 -0.1509 -0.2273
38728W        W69944  11.624  22.716   0.216  0.0957  0.0409  0.3434
38729W        W69945   2.258  11.704   0.527 -0.0545 -0.1532  0.1694
38730W        W69946  27.570  13.749   3.247 -0.3967  0.3776  0.2217
38731W        W69947   6.142  23.501   1.878  0.0532  0.1986  0.3438
38732W        W69948  10.474   0.652  10.441  0.1392 -0.4428 -0.0666
38733W        W69949  25.769  18.894   9.304 -0.1297  0.0532 -0.1119
38734W        W69950  10.089   7.452   8.577 -0.1535 -0.0799 -0.0440
38735W        W69951   6.089  24.100  10.401 -0.0664 -0.1613 -0.1378
38736W        W69952  18.275  15.627   0.010 -0.5296 -0.0149  0.0176
38737W        W69953  17.064  22.254   4.117 -0.0252  0.1560 -0.0912
38738W        W69954  22.625   9.251   7.886  0.0589 -0.0106  0.1191
38739W        W69955  14.024  22.441   0.458  0.0837  0.2041  0.1399
38740W        W69956   3.165  20.434   0.319  0.2607 -0.0510 -0.1143
38741W        W69957  17.141  12.302   7.789 -0.0504  0.1075 -0.0577
38742W        W69958   7.341  13.523   7.793  0.4039 -0.1349  0.1782
38743W        W69959   5.942   4.020   0.897  0.2442 -0.0612  0.2529
38744W        W69960  27.457   4.288   2.085  0.1955 -0.0772 -0.1479
38745W        W69961  24.618  24.973  10.163  0.0627  0.0318  0.2463
38746W        W69962   4.058  23.018   7.873 -0.3315 -0.0295 -0.1530
38747W        W69963   2.325   7.962   8.670 -0.2877 -0.0391  0.2253
38748W        W69964  27.233   0.864   8.859  0.0701  0.0137  0.1739
38749W        W69965   9.397  17.973  10.034  0.2833  0.1402 -0.1839
38750W        W69966  18.585   4.763  10.531  0.0240 -0.0032 -0.0742
38751W        W69967   9.715  11.754   0.749  0.2043 -0.2551  0.0820
38752W        W69968   6.692  25.687  10.212 -0.1128  0.2746 -0.2917
38753W        W69969  19.104   3.877   2.052  0.2641 -0.0443 -0.0044
38754W        W69970  19.568  18.574   3.095  0.2323  0.0552 -0.1377
38755W        W69971   0.998  15.642   2.497 -0.0937 -0.2839 -0.2565
38756W        W69972  17.573   8.064   0.887 -0.1670  0.1187  0.0969
38757W        W69973  16.122   4.151   1.066 -0.0218 -0.4087  0.0324
38758W        W69974   7.989  17.119   2.808  0.3564  0.2006 -0.0177
38759W        W69975  15.187   0.514   0.257  0.0906 -0.0058 -0.1251
38760W        W69976   2.508  19.640   8.829 -0.0376  0.0147  0.0669
38761W        W69977   1.658  25.828   0.959  0.0122  0.1131  0.2934
38762W        W69978   1.570  13.617   8.583  0.2718  0.3349 -0.1972
38763W        W69979  10.570   6.626   9.865  0.3931 -0.0330 -0.3373
38764W        W69980  19.791  10.794   8.672 -0.1278 -0.0755  0.2475
38765W        W69981   8.958   2.323   0.635 -0.2404 -0.2228  0.1834
38766W        W69982  10.903   6.880   1.740 -0.1921 -0.1657 -0.1047
38767W        W69983   4.242  10.605   7.620  0.1462  0.2703 -0.0202
38768W        W69984   0.267  23.826  10.050  0.0249  0.1415  0.0233
38769W        W69985   7.146  11.581   9.921  0.3110 -0.1281  0.0524
38770W        W69986   8.448   5.996   0.094 -0.1586  0.1201  0.1440
38771W        W69987   8.534  16.056   8.348  0.0593  0.0727  0.4590
38772W        W69988  19.412  17.141   0.563 -0.0684 -0.2344  0.3373
38773W        W69989   3.992  20.009   8.615 -0.3664  0.2333  0.0357
38774W        W69990  18.189  18.343   1.221  0.0379  0.1059 -0.2723
38775W        W69991  12.569   5.812   2.820 -0.0311  0.0499 -0.1599
38776W        W69992   7.379  16.946   2.911 -0.3535 -0.2724 -0.1327
38777W        W69993   6.856   4.107   2.683  0.0107 -0.0775  0.1924
38778W        W69994   3.436  23.089   8.723  0.0434  0.0965  0.0358
38779W        W69995  12.376  16.272   1.056  0.0599  0.0876 -0.3659
38780W        W69996  14.873  21.126   0.591  0.1865 -0.0438  0.1170
38781W        W69997   9.180   8.938   1.188  0.2291 -0.1996  0.3245
38782W        W69998  17.442  26.310   1.818 -0.0725 -0.3838 -0.0082
38783W        W69999  22.245   9.853   8.774 -0.3775  0.0672 -0.0204
38784W        W70000  13.103  23.296   0.273  0.1611  0.0483 -0.2045
38785W        W70001   4.128   2.448   2.589 -0.0997 -0.1008  0.1824
38786W        W70002   3.279   9.549   2.033 -0.0479  0.3438  0.0856
38787W        W70003  12.250   3.606   9.483 -0.1461  0.2248  0.3177
38788W        W70004  16.885  21.826   3.243 -0.1659 -0.0238 -0.1516
38789W        W70005  22.648  19.555   1.355 -0.0357 -0.0307  0.2038
38790W        W70006  12.363   1.451   7.599 -0.2811 -0.0207 -0.0055
38791W        W70007  10.713   6.065   0.190 -0.2092 -0.2196  0.2979
38792W        W70008   9.618  17.077  10.271 -0.0296 -0.1728 -0.1307
38793W        W70009  14.347  25.555  10.106  0.0192  0.0258  0.1679
38794W        W70010  10.132  10.998   9.519  0.0408  0.2069 -0.3073
38795W        W70011  14.309  18.922   1.190  0.0050  0.2790 -0.0456
38796W        W70012   3.489  22.110   0.329  0.0461  0.1460 -0.0581
38797W        W70013  22.178  15.055   7.079  0.0403 -0.1307 -0.3376
38798W        W70014  18.365  12.730   7.901 -0.0121  0.2033  0.0092
38799W        W70015   3.933   0.191   8.655 -0.0924 -0.0095 -0.3665
38800W        W70016   0.347  14.591   9.102 -0.0995 -0.2695  0.0324
38801W        W70017  25.385  12.075   8.532  0.1367 -0.2925  0.1096
38802W        W70018  21.213  13.767   0.517  0.3589 -0.2693  0.0719
38803W        W70019  13.869  16.440   2.983  0.2045  0.0438 -0.0374
38804W        W70020  17.912   2.744   8.584  0.3679  0.0254 -0.0004
38805W        W70021  18.899   0.597  10.457 -0.2252 -0.0830 -0.1074
38806W        W70022  17.965  24.932   2.681  0.2538 -0.1659 -0.2951
38807W        W70023  25.208  19.350   8.830  0.0563  0.0359 -0.0976
38808W        W70024   5.186  20.388   1.077 -0.0020 -0.0460  0.1970
38809W        W70025   7.612  16.661   9.549 -0.2023  0.2529 -0.2038
38810W        W70026   8.343  22.171   8.381  0.0808  0.2446  0.3697
38811W        W70027  11.084  17.004   9.334  0.1876 -0.0626  0.1396
38812W        W70028  13.302  22.023   0.726  0.1486  0.1383 -0.0972
38813W        W70029  20.842  16.785   2.505  0.0477  0.4236 -0.1469
38814W        W70030  14.464  17.653   7.480  0.0198  0.0137 -0.0348
38815W        W70031  22.010  10.501   8.219 -0.0875 -0.2637  0.0365
38816W        W70032  10.019   4.251   9.701  0.2198 -0.4666  0.0567
38817W        W70033  16.265   6.379   7.799  0.0496  0.1535  0.0993
38818W        W70034  23.021  12.044   9.138 -0.1013  0.2045  0.0002
38819W        W70035   3.007  11.409   0.077 -0.1042 -0.1587  0.0971
38820W        W70036  21.494  14.837   1.563 -0.2480 -0.0613 -0.0662
38821W        W70037  19.232  20.268   3.470 -0.0122 -0.0835  0.0097
38822W        W70038  24.539  13.240   8.061  0.0813  0.1490  0.0297
38823W        W70039  11.906  10.575   0.358 -0.0481  0.1443 -0.3880
38824W        W70040   0.498  13.303   1.990  0.1433 -0.0294 -0.2999
38825W        W70041   3.007  24.156   2.080 -0.1597 -0.3489 -0.0255
38826W        W70042  21.115  15.751   8.252 -0.0064  0.0439 -0.0236
38827W        W70043  21.964  17.118   0.067 -0.1530  0.0208  0.1971
38828W        W70044  17.592  26.944   1.241  0.1188  0.1558  0.2393
38829W        W70045  17.051  24.714   3.562  0.1509  0.2290  0.0614
38830W        W70046   4.666   5.931   9.590 -0.1787 -0.1501 -0.2710
38831W        W70047  23.665  12.178  10.462 -0.2098  0.2623  0.0059
38832W        W70048  17.265   0.830   8.810 -0.0275  0.0245  0.0613
38833W        W70049  27.592  25.655   8.011  0.2204 -0.1192 -0.1850
38834W        W70050  12.851  20.332   1.074 -0.1117 -0.0043  0.0588
38835W        W70051  20.083   4.467   7.950 -0.0639 -0.1690 -0.0731
38836W        W70052  19.592  27.048   0.635  0.5158 -0.0217  0.1192
38837W        W70053  10.644  24.518   0.007 -0.0880 -0.0078  0.0156
38838W        W70054   6.073  13.466   3.284 -0.1889  0.2543 -0.0842
38839W        W70055  14.927  17.434   1.392  0.1758 -0.1633 -0.1745
38840W        W70056   7.286   4.587   0.489  0.1497 -0.0731  0.0494
38841W        W70057  25.368  23.966   8.786  0.0656 -0.2374  0.0872
38842W        W70058  19.510   4.827   3.641  0.0446  0.2391 -0.3294
38843W        W70059   6.203  13.308   2.266 -0.1700  0.1389 -0.2367
38844W        W70060  16.060  24.716   1.317  0.1477 -0.0545  0.0162
38845W        W70061  22.507  19.534   1.841 -0.3432  0.0267  0.3172
38846W        W70062  14.204  24.317   7.907 -0.2376 -0.0637  0.1840
38847W        W70063   1.009  13.657   1.273  0.3242  0.0140 -0.0861
38848W        W70064   5.482   3.492   3.174 -0.1735  0.2296  0.0873
38849W        W70065  19.621   7.464   8.179  0.3006  0.0059 -0.1102
38850W        W70066  14.331   8.617   1.883 -0.3514  0.0190  0.0246
38851W        W70067   2.416   2.269   7.903 -0.0427 -0.0345 -0.0951
38852W        W70068  15.302  24.602  10.498 -0.0094 -0.3439 -0.0036
38853W        W70069  13.862  26.605   2.872 -0.3662 -0.3662  0.2379
38854W        W70070   2.883  19.517   3.039 -0.1588 -0.0968 -0.2688
38855W        W70071  18.087   9.076   7.964 -0.2141  0.0376  0.1042
38856W        W70072   9.988  26.464   0.519  0.0022 -0.0964 -0.2053
38857W        W70073  25.681  13.101   2.608 -0.0857  0.0255 -0.4027
38858W        W70074  19.349  17.262   8.357  0.2677  0.1048  0.1101
38859W        W70075   3.098   1.685   3.324 -0.3286 -0.0464 -0.4479
38860W        W70076  12.141  27.561   2.010  0.0647 -0.2308  0.0508
38861W        W70077  12.932  14.809   1.898  0.1838 -0.3957  0.3099
38862W        W70078  27.013  21.812   9.396  0.0003  0.0745  0.2020
38863W        W70079  21.127  25.148   8.526 -0.2341 -0.1551  0.2463
38864W        W70080  10.361  13.276   1.818 -0.3345 -0.0034  0.1128
38865W        W70081   2.828  19.916  10.115 -0.0021  0.0299  0.2044
38866W        W70082   9.565  21.271   9.296 -0.0312  0.2060  0.5170
38867W        W70083   4.345  16.017  10.457  0.0314  0.0263 -0.1918
38868W        W70084   1.042  15.079   2.711  0.1592 -0.0434 -0.0146
38869W        W70085   6.386  15.617   0.947  0.3889 -0.3697  0.0381
38870W        W70086   4.775  19.085   0.374 -0.0614 -0.1559 -0.0083
38871W        W70087   5.560  22.905   0.067 -0.2928 -0.1911 -0.1032
38872W        W70088   6.236  21.337   9.891 -0.1117 -0.0892 -0.2343
38873W        W70089   8.010   5.952   8.193  0.2439 -0.0220 -0.1441
38874W        W70090  13.413  27.032   9.017 -0.0589  0.0887  0.1451
38875W        W70091  21.289  10.674   1.698  0.1166 -0.1220  0.0364
38876W        W70092  10.344   9.373   9.089 -0.4199 -0.0011 -0.0124
38877W        W70093  11.034  16.781   1.179  0.2888  0.0686  0.1024
38878W        W70094   7.968   6.749   8.117 -0.0643 -0.2546 -0.1480
38879W        W70095  21.387  21.458   3.106  0.1650  0.1425  0.3772
38880W        W70096  15.075  12.907   8.076 -0.0508 -0.1165 -0.0146
38881W        W70097  13.941   6.500   7.821 -0.0362  0.1903  0.1033
38882W        W70098   9.193  26.317   0.025  0.2502  0.0082 -0.0016
38883W        W70099   8.351  26.981   9.485  0.2722 -0.0352  0.3045
38884W        W70100   3.073   5.064   3.357 -0.4933  0.1029  0.2418
38885W        W70101  25.978  14.837   9.974  0.1145  0.0154  0.0470
38886W        W70102  14.025  10.587   0.085 -0.0771  0.1724  0.0835
38887W        W70103   2.529  19.440   3.426 -0.0333  0.1316  0.0420
38888W        W70104  12.003  10.624   1.731 -0.1337 -0.0354 -0.1417
38889W        W70105  22.190   0.041   1.145  0.0634  0.4595  0.3691
38890W        W70106   1.233  22.500   1.977  0.2396  0.0143  0.0916
38891W        W70107   0.649   8.615   8.704  0.1404  0.3616  0.0467
38892W        W70108  27.151  23.500   7.602 -0.0108  0.0204  0.0771
38893W        W70109  16.404  15.903   9.486  0.2561 -0.0809 -0.3628
38894W        W70110  14.397   2.309   0.951 -0.0551 -0.4690  0.3740
38895W        W70111   4.824  23.062   8.300  0.0425  0.2538  0.0799
38896W        W70112  25.981   1.827   2.712  0.3538 -0.0889 -0.0023
38897W        W70113  25.962  24.102   2.520 -0.2255 -0.1854  0.2294
38898W        W70114  24.131   3.428   3.063  0.0924  0.0982 -0.2024
38899W        W70115  14.204  27.088   1.303  0.0733 -0.0741  0.1791
38900W        W70116   5.489   6.948   7.946  0.0514 -0.0515 -0.1930
38901W        W70117  17.742   4.392   7.778 -0.1407  0.2267  0.1353
38902W        W70118   4.318  10.092   7.408 -0.3931 -0.2445  0.2067
38903W        W70119  24.732  26.414   1.207  0.0502 -0.0676 -0.0912
38904W        W70120   2.173  24.243   9.448  0.3268  0.1319  0.1387
38905W        W70121  26.739  23.276   8.311  0.0970  0.0005  0.1973
38906W        W70122   8.619  10.970   7.668 -0.3579  0.1201 -0.3878
38907W        W70123  18.844  20.220  10.056  0.0668 -0.0274 -0.1490
38908W        W70124   3.823  19.978   1.467 -0.2819 -0.4103 -0.2261
38909W        W70125   2.035  14.368   8.894 -0.0644  0.1752 -0.0331
38910W        W70126   3.784  22.662   2.628 -0.0721 -0.1588  0.0750
38911W        W70127   4.627   1.200   8.049  0.0765 -0.3360 -0.6124
38912W        W70128  10.645  20.455   3.281 -0.0562  0.1654  0.0310
38913W        W70129  12.220   9.140   3.328  0.1822  0.2425  0.1993
38914W        W70130   0.710  14.059   3.520  0.0223  0.0835  0.0046
38915W        W70131   2.607  12.993   9.530 -0.1312 -0.0191  0.0580
38916W        W70132  21.730  21.318   0.643  0.1361  0.0038  0.0525
38917W        W70133  17.366  15.331   8.087  0.2636  0.1419 -0.2565
38918W        W70134  17.704  16.554   3.372  0.1674  0.1500  0.0999
38919W        W70135  27.584  16.119   9.868 -0.0299  0.4753  0.1292
38920W        W70136  19.787   9.204   1.637  0.0484  0.1300  0.0672
38921W        W70137   5.328  13.942   3.024 -0.0851 -0.1851 -0.1531
38922W        W70138   8.045  23.851   3.250 -0.2501 -0.1501  0.0365
38923W        W70139  14.372  21.593   8.119  0.1606 -0.0244  0.2623
38924W        W70140  14.481  15.441   9.476  0.3619  0.0333 -0.0829
38925W        W70141  19.684   2.520   8.709  0.0858  0.1330  0.0266
38926W        W70142   3.588  14.085   2.545 -0.1295 -0.0581  0.3534
38927W        W70143  14.635  15.989   1.561 -0.2158 -0.1012  0.1666
38928W        W70144  18.257  11.294  10.422  0.0379 -0.2495 -0.1603
38929W        W70145  15.181   9.234   8.738 -0.2297  0.1583 -0.0110
38930W        W70146   8.722  13.652   8.809  0.0871  0.3570 -0.6426
38931W        W70147  21.141   0.434   0.592  0.0267 -0.1628  0.2141
38932W        W70148  19.482  17.335   8.827  0.2438  0.3638 -0.1673
38933W        W70149  13.951  19.335   8.852 -0.1669 -0.1927  0.1265
38934W        W70150   3.729  26.239   2.598 -0.0580  0.0593 -0.0544
38935W        W70151  25.125  15.606   7.712  0.2809  0.0286 -0.0467
38936W        W70152  20.409  22.216   8.445 -0.0179  0.0933 -0.1045
38937W        W70153  16.957  13.624   0.951  0.0794  0.1345  0.2753
38938W        W70154  18.746  23.217  10.190 -0.1619  0.0988  0.1744
38939W        W70155  23.318   9.183   9.654 -0.2006 -0.5432  0.1425
38940W        W70156   9.464   7.459   0.286 -0.0554 -0.3068 -0.1425
38941W        W70157  19.360   9.002  10.185 -0.1499 -0.1012  0.2770
38942W        W70158  16.011  11.637   1.124  0.1737  0.1034  0.0571
38943W        W70159   0.992  20.566   3.311 -0.2401 -0.0570  0.1455
38944W        W70160   9.218   7.546   7.642  0.1831  0.0826 -0.1087
38945W        W70161  19.939  16.505   8.071  0.0551 -0.3237  0.2754
38946W        W70162   0.384  11.129   9.900 -0.2715 -0.0011  0.1035
38947W        W70163  13.632  12.232   9.270 -0.2486 -0.0688 -0.0601
38948W        W70164   4.308   6.649   0.755 -0.1631 -0.2157  0.0556
38949W        W70165  22.365  27.045   1.703  0.1094 -0.2205  0.2122
38950W        W70166  17.975  19.632  10.468  0.2156  0.4875  0.1558
38951W        W70167  25.485  23.335   9.608 -0.1866  0.0421 -0.2217
38952W        W70168  23.270   9.884   1.526 -0.1091  0.2852 -0.1963
38953W        W70169  23.957  26.570   8.831 -0.3175  0.3203 -0.0013
38954W        W70170  26.763   5.925   0.707 -0.0957 -0.3478  0.3261
38955W        W70171  26.410  26.390   2.144  0.4294 -0.0915  0.0351
38956W        W70172  27.517  25.285   1.279 -0.1464 -0.1718  0.2096
38957W        W70173  15.972  17.875   2.956 -0.2101  0.3736  0.0485
38958W        W70174  11.224  20.941   8.366  0.1859 -0.1131  0.0812
38959W        W70175   2.253  25.659  10.515  0.0390 -0.1368  0.1166
38960W        W70176   2.714  12.198   9.929  0.2678  0.4842 -0.0303
38961W        W70177  25.253   2.106   2.439 -0.1441  0.0948 -0.2094
38962W        W70178  21.200  24.456   2.218 -0.1944  0.0458  0.1106
38963W        W70179  12.898   2.853   8.674  0.0375 -0.2727  0.0550
38964W        W70180  12.445   6.792   8.806  0.1892  0.1804  0.1957
38965W        W70181   5.453   8.133   2.748  0.1326 -0.1317  0.1211
38966W        W70182   7.849  13.794   9.106  0.0353 -0.3121  0.0027
38967W        W70183  20.681  12.177  10.440 -0.0573 -0.4692  0.1698
38968W        W70184  10.767  24.345   1.081  0.3121 -0.3681  0.0228
38969W        W70185   2.651  25.877   0.771 -0.0550 -0.0971 -0.2578
38970W        W70186  24.218  10.512   8.433  0.0022 -0.0922 -0.0312
38971W        W70187   7.642  17.932   8.603  0.1759  0.1146  0.1960
38972W        W70188  12.722   4.543   0.593  0.2449  0.1577 -0.1193
38973W        W70189  16.729  26.048   2.471  0.4027  0.1052  0.1970
38974W        W70190  12.611  23.668   9.822 -0.0894 -0.1045  0.0032
38975W        W70191  23.134   9.541   1.832  0.0266 -0.2562  0.0544
38976W        W70192   5.336  23.166   9.175  0.0299 -0.1898 -0.2655
38977W        W70193  24.090   2.398   2.047 -0.3922  0.2928  0.1416
38978W        W70194   2.226  27.617  10.032  0.0261  0.0711  0.0561
38979W        W70195   7.922  21.157   8.698 -0.3937 -0.0317 -0.1492
38980W        W70196   4.522   7.369   9.253 -0.0639 -0.0374  0.1837
38981W        W70197  25.362  22.343   2.059 -0.1874  0.0573  0.2379
38982W        W70198   5.237  15.109   8.854  0.1256 -0.3859  0.0536
38983W        W70199  27.531  17.803   2.244 -0.2175 -0.1624  0.1906
38984W        W70200   3.472  19.881   1.869 -0.1170 -0.0855  0.2091
38985W        W70201  24.625  26.017   0.908 -0.1458  0.1638  0.0510
38986W        W70202  26.581  24.570   9.312  0.0777  0.1522 -0.1131
38987W        W70203   7.296   9.557   2.519 -0.0044  0.3494 -0.1215
38988W        W70204  21.416   6.022   9.476  0.0005 -0.2261 -0.2422
38989W        W70205  11.145  19.873   1.739  0.1442 -0.3966 -0.0462
38990W        W70206  13.497  11.651   7.631  0.3062 -0.0348 -0.1334
38991W        W70207  16.191  25.211   1.371 -0.0112 -0.1271 -0.0382
38992W        W70208  17.910  21.875   0.818 -0.2046 -0.2161  0.0393
38993W        W70209   4.708   3.177   8.688 -0.0323 -0.0601 -0.0005
38994W        W70210  21.937  18.148   8.542  0.1574  0.0593 -0.2841
38995W        W70211  12.479  21.618  10.459 -0.0428 -0.0013  0.1998
38996W        W70212   2.474   0.234   8.040  0.1530  0.0324 -0.3223
38997W        W70213  18.365  18.994   2.250  0.0330  0.0188  0.1191
38998W        W70214   4.820   5.349  10.213  0.1125 -0.1589  0.1824
38999W        W70215   1.744  16.219   8.475  0.0971  0.2021  0.1402
39000W        W70216   1.036  25.980   1.936 -0.1273 -0.4375 -0.3000
39001W        W70217  15.827   5.814   2.211 -0.0216 -0.0028  0.1010
39002W        W70218  23.105  24.729   9.889  0.1016 -0.1442 -0.0567
39003W        W70219  20.316  23.293   1.311 -0.1341  0.1570  0.1120
39004W        W70220  13.730   4.653   8.091  0.0744  0.0742  0.0636
39005W        W70221  18.402   3.584   7.547 -0.2150  0.1874  0.0022
39006W        W70222  25.274  13.858   7.621 -0.1137 -0.2720  0.1411
39007W        W70223  21.433  21.195   1.659  0.2687  0.2681 -0.1213
39008W        W70224   0.029  21.449   0.351 -0.1353  0.2215 -0.2764
39009W        W70225   2.962   6.709   3.430 -0.0091 -0.0123 -0.0920
39010W        W70226  14.904  10.801   7.583  0.1316 -0.0605  0.1647
39011W        W70227   1.488   4.991   7.526 -0.1414 -0.1194 -0.1200
39012W        W70228  23.127  16.319   1.256  0.0676  0.2171 -0.0547
39013W        W70229  23.745   3.776   3.282 -0.0106 -0.2336  0.0165
39014W        W70230  15.958   5.777   9.634 -0.0879  0.0175  0.2608
39015W        W70231   6.093  26.585   0.417 -0.0542 -0.1156  0.2416
39016W        W70232  26.728   3.482   1.139 -0.2848 -0.1355  0.2773
39017W        W70233  25.581  14.478  10.041 -0.3280  0.1596 -0.1573
39018W        W70234  17.843  23.153   1.980  0.1574  0.1170  0.1447
39019W        W70235   3.491  21.502   1.023 -0.0481  0.0285  0.1984
39020W        W70236  11.564   4.631   9.021 -0.0443  0.0143  0.3460
39021W        W70237   0.290  24.302   1.093 -0.0170 -0.4671 -0.1134
39022W        W70238  16.348  25.355   8.145  0.1804  0.0852 -0.0011
39023W        W70239  11.832   3.126   3.737  0.0473 -0.1117  0.2156
39024W        W70240  21.898   0.962   2.125 -0.1101  0.0699 -0.2109
39025W        W70241   6.626  22.912   8.883 -0.2307 -0.2192  0.1001
39026W        W70242  20.701  20.608   1.501 -0.0925  0.1963 -0.3225
39027W        W70243  14.480   2.863   3.850 -0.2740  0.0840  0.1301
39028W        W70244  19.060  19.103   3.688  0.0594 -0.1775  0.0720
39029W        W70245  13.661  21.199   3.084  0.2843 -0.3329  0.3094
39030W        W70246  26.757   7.085   9.009  0.1546  0.2734  0.1120
39031W        W70247   5.607  24.209   1.521 -0.3819  0.1697  0.0284
39032W        W70248   1.580   0.680   0.063  0.0119  0.0763  0.0715
39033W        W70249  18.422   2.885   8.326 -0.0888  0.0325 -0.2980
39034W        W70250  22.054  15.274   7.634  0.0553 -0.1554 -0.1459
39035W        W70251  27.234   6.822   3.794 -0.0130 -0.1583 -0.0160
39036W        W70252   9.006   3.868   0.923 -0.2044  0.0803 -0.1814
39037W        W70253   7.563   8.760   7.505  0.1330 -0.0973  0.1807
39038W        W70254  26.341  20.559   3.405  0.2322  0.0573  0.0047
39039W        W70255  20.579  15.683   9.341 -0.2848  0.1713  0.1192
39040W        W70256  19.769  12.416   0.817 -0.0920  0.0520  0.0210
39041W        W70257  16.621  12.532   9.667 -0.0435  0.0889  0.3948
39042W        W70258   5.720   6.704   9.356 -0.0369 -0.1920 -0.1625
39043W        W70259   2.895  15.607  10.219  0.0221  0.0150 -0.1522
39044W        W70260  27.016  17.727   8.831 -0.1748 -0.2386  0.2384
39045W        W70261   4.298   5.208   1.823 -0.0440  0.1241  0.1952
39046W        W70262  15.515  26.757   0.701  0.3437 -0.0029  0.1222
39047W        W70263  11.373  18.877   9.259  0.0438  0.1887 -0.4422
39048W        W70264  25.101   0.875   1.604  0.1660 -0.2498  0.2880
39049W        W70265  14.570  10.244   9.870  0.0717 -0.5506  0.0253
39050W        W70266  15.699  25.349   0.504  0.0818  0.1771 -0.3845
39051W        W70267   7.281  25.582   8.603 -0.1001 -0.0248  0.0372
39052W        W70268  10.989  24.399   3.504 -0.0747  0.1093 -0.0967
39053W        W70269  11.001  16.966   0.339 -0.1297 -0.3296 -0.2105
39054W        W70270  19.240  25.795   0.411  0.1472  0.0201  0.0084
39055W        W70271  25.196  20.706  10.226 -0.3688 -0.0344  0.0339
39056W        W70272  18.177   5.366   2.528 -0.4401  0.1566  0.0691
39057W        W70273  15.032   6.534   1.985  0.1439  0.3135 -0.0913
39058W        W70274   0.404  14.710   0.945 -0.0272  0.2298  0.0786
39059W        W70275  11.263   4.801   3.252 -0.2751  0.0339  0.1878
39060W        W70276   7.606   6.917   0.634 -0.2394  0.1263 -0.0438
39061W        W70277  15.934   2.212   8.986  0.1976  0.1576  0.1708
39062W        W70278  15.935   4.315   8.760  0.4471 -0.0772 -0.2407
39063W        W70279  26.042  21.678   1.586 -0.0979 -0.3317 -0.0491
39064W        W70280  26.217  15.260   7.326 -0.1082 -0.0023  0.1270
39065W        W70281  23.104   5.127   8.209  0.0723 -0.3142 -0.1157
39066W        W70282  10.402  20.427   1.579  0.0558  0.0318  0.1909
39067W        W70283  12.012  23.256  10.317  0.2654 -0.0100 -0.1061
39068W        W70284   5.755  16.687   0.502 -0.2218  0.0747 -0.0246
39069W        W70285  23.876  14.436   2.515  0.2106  0.1210 -0.4946
39070W        W70286  19.755  10.830   9.738 -0.0673 -0.1391  0.2717
39071W        W70287  17.496   5.621   3.055  0.2620  0.1082 -0.2727
39072W        W70288  10.694   4.824   2.547  0.0363  0.1416  0.4399
39073W        W70289   0.453  13.524   0.011  0.0531  0.0870  0.0413
39074W        W70290   6.304  26.835   8.220  0.1326 -0.1249  0.0491
39075W        W70291  16.691  12.090   9.896  0.0790  0.3251 -0.0778
39076W        W70292  26.659  27.154   1.202  0.0416  0.0222 -0.0735
39077W        W70293   8.071  17.224   7.714 -0.2826 -0.1102  0.2696
39078W        W70294  11.386  11.700   1.112 -0.1693 -0.2246  0.1855
39079W        W70295   3.517   4.065   0.810  0.0979 -0.0862 -0.0532
39080W        W70296   8.682   0.323   8.480 -0.0194 -0.0256 -0.1388
39081W        W70297  10.810   3.937   2.840  0.0454 -0.0200  0.1269
39082W        W70298   5.574   6.881   1.581 -0.1031  0.2985 -0.0453
39083W        W70299  11.502  26.565  10.131  0.2395 -0.4982  0.1502
39084W        W70300  19.651   8.623   9.905 -0.0863  0.0823  0.1299
39085W        W70301  13.077   8.490   9.308 -0.0775 -0.1011 -0.0367
39086W        W70302   2.034   5.158   1.673 -0.2294 -0.1501 -0.2101
39087W        W70303  13.484   6.927   8.316  0.0114  0.1591  0.0287
39088W        W70304  17.888   4.930   8.730  0.1804 -0.1311 -0.1643
39089W        W70305  25.899  25.356   9.380  0.0809  0.0031  0.1225
39090W        W70306  20.035  19.747   3.014 -0.0299  0.3015 -0.0005
39091W        W70307  14.956  18.305   8.739  0.0845 -0.1231  0.0847
39092W        W70308  19.903  14.598  10.372 -0.0042 -0.2709 -0.3260
39093W        W70309  24.324   2.527   3.294  0.1274 -0.1853  0.0025
39094W        W70310  18.913  15.468  10.359 -0.1768 -0.3124  0.2910
39095W        W70311  15.553  15.552   0.408 -0.1568  0.1670  0.0949
39096W        W70312   4.774   5.406   9.196 -0.0036 -0.4957 -0.0657
39097W        W70313  12.485  27.341   0.104 -0.3065  0.4564  0.0547
39098W        W70314  26.550  15.767   9.363  0.1525  0.2160 -0.4063
39099W        W70315   0.902   9.103   2.706  0.1515 -0.0611  0.0399
39100W        W70316   7.456   5.860   8.220  0.3659 -0.0112 -0.1573
39101W        W70317  26.969  18.964   3.121 -0.1967  0.0173  0.0165
39102W        W70318  22.098   0.762   8.571 -0.1467  0.1113 -0.0597
39103W        W70319  26.202  20.499   0.883  0.2311  0.1878  0.2021
39104W        W70320   5.197  22.140   3.545  0.0314 -0.1227 -0.1006
39105W        W70321   5.200  27.260   1.299  0.0467 -0.1323 -0.0039
39106W        W70322  13.199   9.451   3.903 -0.2840  0.0559 -0.2705
39107W        W70323   6.045  11.813   7.604  0.0620  0.2173  0.2691
39108W        W70324  10.282  26.132   3.651 -0.2478  0.1545  0.0938
39109W        W70325  20.186   2.736   9.526  0.0664 -0.1058  0.0709
39110W        W70326  14.138  23.381   7.855 -0.0832 -0.1220 -0.0828
39111W        W70327  26.342  23.898   0.402 -0.0532  0.0056 -0.1940
39112W        W70328   3.398   2.129   9.158  0.0762 -0.0554 -0.1835
39113W        W70329  25.801  12.983   0.383  0.0390 -0.2268  0.2710
39114W        W70330  23.653  13.957   1.983  0.1373  0.1628 -0.0198
39115W        W70331  25.760   6.764   2.879  0.0224 -0.3588  0.0067
39116W        W70332   8.778  11.449   1.410 -0.1520 -0.0839  0.1098
39117W        W70333   5.579  22.940   3.552 -0.0449  0.0782  0.3086
39118W        W70334   9.168   5.714   8.284  0.1190 -0.3136  0.4015
39119W        W70335   5.412  17.114   0.681 -0.0657 -0.2214  0.0261
39120W        W70336  18.889   2.678   0.849 -0.0774  0.4005  0.0264
39121W        W70337  11.229   0.462   3.309 -0.0932  0.1930  0.2664
39122W        W70338  24.250  15.931  10.404  0.0345  0.3745 -0.3798
39123W        W70339  22.254   5.609   9.714 -0.4012 -0.0559  0.0585
39124W        W70340  15.643  16.926   1.427  0.1528 -0.3376  0.1181
39125W        W70341  18.177   0.301   1.900  0.0135 -0.2462 -0.1371
39126W        W70342  17.030  24.277   0.415  0.1472 -0.0916 -0.1407
39127W        W70343  24.618   0.921   0.323  0.0387  0.4043 -0.0544
39128W        W70344  12.964   5.619   2.458 -0.1665  0.3949  0.1180
39129W        W70345   8.042   4.785   7.701  0.0210  0.0534  0.1459
39130W        W70346  20.619  17.453   1.453  0.0920  0.1882  0.0948
39131W        W70347  12.208  21.822   1.064 -0.0522 -0.3475  0.2377
39132W        W70348  14.659   0.306   3.063 -0.2776 -0.0733  0.1320
39133W        W70349   4.475  18.735   1.014  0.1330 -0.5357  0.2654
39134W        W70350  13.229   6.173   3.715 -0.1806 -0.4049 -0.0526
39135W        W70351   3.986  18.414   7.577  0.0133  0.1140  0.3238
39136W        W70352  18.965  18.573   2.348  0.1663 -0.4772  0.3798
39137W        W70353  25.348  25.288  10.351  0.1367  0.3578  0.1488
39138W        W70354   7.889   9.868   2.299 -0.0824  0.1788  0.2338
39139W        W70355   6.537  21.772   3.479  0.1448  0.1277 -0.1769
39140W        W70356   6.772   9.235   9.044  0.0416 -0.0647  0.1696
39141W        W70357  13.900   8.068   2.096 -0.2115  0.0139 -0.0477
39142W        W70358  12.044  21.451   2.230 -0.0005  0.2212  0.2344
39143W        W70359  26.554  12.514   2.049 -0.0439  0.4118  0.0319
39144W        W70360  17.586  26.013   1.111  0.0243 -0.1034  0.0540
39145W        W70361   2.604  10.831   8.356  0.0318  0.0117 -0.2520
39146W        W70362   6.867  14.825   3.070  0.3146  0.0708 -0.0893
39147W        W70363   3.645  15.581   7.785 -0.0114 -0.1648 -0.2033
39148W        W70364   5.689  22.955   9.695  0.2308  0.1159  0.0926
39149W        W70365  20.960   8.883   3.388 -0.2269  0.1438 -0.0060
39150W        W70366   4.653   1.744   1.937 -0.1902 -0.0017  0.1368
39151W        W70367   8.913   6.807   1.341 -0.3480 -0.0603 -0.1279
39152W        W70368  14.480  16.542   0.371 -0.0703  0.0478  0.0198
39153W        W70369  26.549   9.445   1.497 -0.0858 -0.0626  0.2686
39154W        W70370  13.755  13.673   2.243 -0.2242  0.1232  0.0358
39155W        W70371   7.087   5.585   9.321  0.3360 -0.3538  0.1637
39156W        W70372  12.971   5.798   2.016 -0.1363  0.3706  0.0778
39157W        W70373  14.301  19.747   0.222  0.5261 -0.1878  0.3650
39158W        W70374  14.304  13.472   8.440 -0.0382  0.2137 -0.2878
39159W        W70375   4.692  12.496   8.132  0.4592 -0.2364 -0.3323
39160W        W70376   2.188  13.211   3.148 -0.3458  0.4700 -0.0864
39161W        W70377  18.044  21.714   9.798 -0.0503  0.0593 -0.2061
39162W        W70378  11.091   4.773   2.317  0.2718  0.1459 -0.0871
39163W        W70379  22.810  20.660   1.998  0.0125 -0.2967 -0.1900
39164W        W70380   7.922  10.205   0.927  0.0313 -0.0493 -0.2692
39165W        W70381  13.605  15.927   1.242 -0.1806  0.1593  0.0982
39166W        W70382  23.052   5.337   9.182  0.1152  0.1282  0.0709
39167W        W70383   3.868   7.257   8.387 -0.2365 -0.0078  0.1433
39168W        W70384  14.456   3.209   1.078 -0.1197  0.0972  0.4247
39169W        W70385  14.477  21.772   0.655 -0.1772  0.2783 -0.0025
39170W        W70386  16.356   9.006   9.942  0.0306  0.0886  0.4956
39171W        W70387  15.733  15.650   2.477 -0.1871  0.2026  0.0814
39172W        W70388  23.974  15.172   1.175  0.3725  0.0999 -0.0862
39173W        W70389  12.722  18.635   1.355  0.2178 -0.1209  0.1722
39174W        W70390  12.343  22.392  10.215 -0.3596  0.1714  0.3942
39175W        W70391  12.326  13.743   2.453 -0.1732  0.0353 -0.1407
39176W        W70392  24.104   7.144  10.128 -0.1847  0.0565  0.0897
39177W        W70393  24.637  24.400   7.610 -0.2291  0.4296 -0.3575
39178W        W70394   2.340  11.809   3.896  0.0967  0.0539  0.3404
39179W        W70395   5.626   9.295   7.891 -0.2729  0.0126  0.2667
39180W        W70396  21.771  10.986   8.895 -0.0883 -0.3502 -0.1315
39181W        W70397   6.234   5.322   8.742 -0.1229  0.1778 -0.0084
39182W        W70398  10.113  18.768   9.527 -0.1121  0.0330  0.1594
39183W        W70399  17.958  17.172   1.084 -0.0033 -0.1473  0.2315
39184W        W70400  11.370  16.569  10.162 -0.0697 -0.0336  0.1784
39185W        W70401  14.677  26.378  10.465 -0.4933  0.1433  0.1218
39186W        W70402  24.342  24.522  10.348  0.1440  0.1141  0.1993
39187W        W70403   9.756  17.319   9.128 -0.0908  0.0500  0.0376
39188W        W70404  12.909  22.421  10.365  0.0084 -0.1852 -0.0745
39189W        W70405   7.217   3.366   1.744  0.0128  0.2194 -0.0503
39190W        W70406   1.454   8.235   1.694  0.1097  0.0485  0.2191
39191W        W70407   8.862   0.236   1.684  0.1821 -0.4655  0.3821
39192W        W70408   9.445   9.254   1.611 -0.1500  0.1532  0.1521
39193W        W70409  12.115   4.175   1.099  0.1167 -0.0290  0.0842
39194W        W70410  27.554  20.994   8.177 -0.1320  0.0151 -0.0268
39195W        W70411   4.868  15.409   9.989 -0.2135  0.0351  0.1952
39196W        W70412  14.910   4.056   0.261  0.1432  0.0898  0.1818
39197W        W70413   5.209   7.285   0.540  0.0131 -0.0921 -0.0959
39198W        W70414  23.596  26.758   1.991  0.1724 -0.2860 -0.0566
39199W        W70415  23.019   4.350   7.919  0.0201 -0.1549  0.1515
39200W        W70416   0.228  22.110   1.496  0.0868  0.2394 -0.3016
39201W        W70417  19.311  22.605   9.646  0.1091  0.0453  0.0573
39202W        W70418   4.401  25.895   0.949  0.1091 -0.3084 -0.0802
39203W        W70419   3.822   0.239  10.324 -0.3513  0.0139 -0.0374
39204W        W70420  20.547  22.409   7.352 -0.0054  0.1167  0.1329
39205W        W70421  23.713   3.092  10.148  0.0853 -0.1339  0.2209
39206W        W70422  23.850  10.277   0.690 -0.0384  0.0934 -0.0582
39207W        W70423  11.926  20.222   2.850  0.0199 -0.2236 -0.1435
39208W        W70424   6.757  12.138   1.858 -0.2244  0.1072 -0.2148
39209W        W70425  12.318  12.347   7.821 -0.1007  0.2418 -0.0693
39210W        W70426   9.526   6.430   9.119  0.1837  0.0694  0.0906
39211W        W70427  11.056   0.191   9.880 -0.1124  0.4391  0.0123
39212W        W70428   3.221  19.662  10.511  0.1490  0.0185 -0.0431
39213W        W70429   6.803  19.471   7.580 -0.2051 -0.1930  0.2126
39214W        W70430   7.639  19.863   9.351 -0.1680 -0.5019  0.3394
39215W        W70431  12.488   1.348   8.956 -0.0397  0.0293 -0.0897
39216W        W70432  25.359  18.657  10.477  0.2636 -0.0398 -0.4484
39217W        W70433   5.015  11.117   0.993 -0.1729  0.0625 -0.0764
39218W        W70434  25.676  25.591   2.441  0.1164 -0.1798  0.2379
39219W        W70435  17.174   1.876   3.701 -0.1084  0.1070 -0.1077
39220W        W70436  26.077  17.249   9.385 -0.0017  0.0032  0.1064
39221W        W70437   5.481  12.964   9.655 -0.1043 -0.1844  0.4233
39222W        W70438  22.867  24.163   2.972 -0.1860  0.4602  0.2396
39223W        W70439  18.492   1.885   9.138  0.2155 -0.0582 -0.0564
39224W        W70440  17.536  18.534   2.062 -0.3057  0.5303  0.1017
39225W        W70441  21.538   4.590   9.495  0.0061 -0.1774  0.0336
39226W        W70442   2.483  13.369   1.318  0.1480 -0.1525  0.1957
39227W        W70443  10.144  17.084   9.472 -0.2051 -0.0274  0.1143
39228W        W70444   7.874  16.737   7.884  0.2929 -0.2674  0.2206
39229W        W70445  16.633   6.168   7.351 -0.2941 -0.2222 -0.0714
39230W        W70446   5.989  26.061   2.203  0.0093 -0.0037 -0.0182
39231W        W70447   5.529   6.278   9.179 -0.3341  0.0534 -0.0153
39232W        W70448  20.013  18.978   7.850  0.0875 -0.3989  0.2500
39233W        W70449   7.074   7.751   8.574 -0.0361 -0.2322 -0.1221
39234W        W70450   3.515  10.684   3.162  0.1430 -0.0711  0.2014
39235W        W70451  24.335   2.977   1.537 -0.0316  0.2718 -0.3360
39236W        W70452  18.678  27.384   8.646 -0.1849 -0.0940 -0.1531
39237W        W70453   4.515   8.543   8.515 -0.2551  0.0326  0.0545
39238W        W70454  27.169  20.671   8.005  0.2153  0.0769  0.1003
39239W        W70455  19.278  18.846   1.710 -0.1137  0.3529 -0.0347
39240W        W70456  23.484   3.642   0.322 -0.0667  0.1667  0.4446
39241W        W70457  19.905  25.207   1.381 -0.2712  0.0637 -0.2225
39242W        W70458  23.701   1.930   0.554  0.1828  0.0738 -0.0733
39243W        W70459  15.929  15.942   1.645 -0.0783 -0.1493  0.3639
39244W        W70460  11.607   9.410   9.547  0.1442 -0.0069  0.0891
39245W        W70461   1.816   6.237   0.427 -0.2523 -0.1348  0.0131
39246W        W70462   7.166   4.839   8.730  0.1915  0.0627 -0.1925
39247W        W70463  22.995  23.106   1.174  0.3304 -0.0953  0.1061
39248W        W70464  13.600   8.321   2.474 -0.0380 -0.0153 -0.0270
39249W        W70465  13.515  21.664   2.781  0.0651  0.2059 -0.1107
39250W        W70466   7.609  25.260   0.969  0.3978  0.1955  0.3945
39251W        W70467   3.955  16.516   7.233  0.0996  0.2343  0.2382
39252W        W70468   5.771  22.800   4.095  0.1253  0.0077 -0.1730
39253W        W70469  15.789  15.645   9.672 -0.2079 -0.2383  0.1797
39254W        W70470   9.047  10.288   3.059 -0.1644  0.1675  0.0197
39255W        W70471  15.337  21.004  10.026 -0.1403  0.2968 -0.0649
39256W        W70472   6.442   6.996   8.205  0.1364 -0.3779 -0.1487
39257W        W70473  25.607  13.247   8.635  0.1948 -0.0552  0.2275
39258W        W70474  26.340  12.080   8.062  0.1129 -0.2043  0.1779
39259W        W70475  13.512   5.866   9.877 -0.0189 -0.2741 -0.1276
39260W        W70476  19.887   6.399   1.808  0.0397 -0.0168  0.0047
39261W        W70477   6.360   4.127   2.377 -0.0865  0.1576 -0.1046
39262W        W70478  10.142  26.032   1.418  0.1807 -0.1461  0.2062
39263W        W70479   8.287  25.653   9.557  0.2276  0.0270  0.0688
39264W        W70480  26.399  12.180   0.196  0.2142  0.0369  0.1017
39265W        W70481  14.783  20.043   1.958  0.6402 -0.2218  0.0540
39266W        W70482  14.477  22.853   8.111 -0.0457 -0.0786  0.1806
39267W        W70483  18.754  27.233   9.562 -0.1944 -0.0051 -0.0954
39268W        W70484  27.347  14.005   9.821  0.2182  0.1641 -0.0971
39269W        W70485   3.461   4.855   8.865 -0.1385  0.2425  0.3565
39270W        W70486  20.117   7.828   1.659  0.0065 -0.2350  0.6390
39271W        W70487   1.136  17.388  10.314 -0.0775  0.0522  0.1087
39272W        W70488   4.571   2.166   3.202 -0.2624  0.1708  0.2402
39273W        W70489  19.887   3.296   1.842  0.1600 -0.0741  0.1971
39274W        W70490  18.239  12.863   2.063 -0.1334  0.0873 -0.0607
39275W        W70491  23.308  21.571   8.913  0.2168  0.2651  0.0654
39276W        W70492  16.978  20.042   2.420  0.2411  0.0903  0.1001
39277W        W70493   1.075   8.452   8.314  0.3567  0.4602 -0.0692
39278W        W70494   7.533   3.561   8.089 -0.1254 -0.0123  0.0750
39279W        W70495   9.970  26.192   8.500 -0.1622  0.0222  0.0907
39280W        W70496   1.827   5.706   3.292 -0.1794 -0.2036  0.0539
39281W        W70497  22.568  13.452   2.181  0.0601  0.0403  0.0300
39282W        W70498  23.226   1.498   0.188 -0.1918  0.0381 -0.2171
39283W        W70499  24.091   7.163   1.425 -0.3486 -0.3143 -0.3108
39284W        W70500  13.414  16.475   3.393  0.1480  0.1549 -0.3010
39285W        W70501   6.134   3.620   3.220 -0.0353  0.0181  0.0676
39286W        W70502  14.427   1.919   8.275  0.0064  0.2053 -0.2572
39287W        W70503  11.406  17.816   8.411 -0.1775  0.1735  0.1210
39288W        W70504  14.633   8.976   8.045 -0.1662  0.2050  0.1387
39289W        W70505   3.318   3.508   3.861  0.0961 -0.0973 -0.0376
39290W        W70506  14.921  21.605   0.378 -0.3417  0.0449  0.1696
39291W        W70507   7.415  12.575   8.706  0.0502  0.0843 -0.0362
39292W        W70508   1.915   4.807   8.197 -0.3850 -0.0535 -0.2392
39293W        W70509  19.261   4.875   8.370  0.0240 -0.1797 -0.0802
39294W        W70510  25.248  13.047   0.715  0.1119  0.3542 -0.0803
39295W        W70511   8.042  10.841   2.712  0.0307  0.1795  0.2324
39296W        W70512  18.912   1.672   3.448  0.1420 -0.0349  0.1262
39297W        W70513   4.436   7.718   8.436 -0.4088  0.0192  0.0818
39298W        W70514  18.834   5.415  10.032  0.1553 -0.1512  0.3568
39299W        W70515  22.179  25.329   0.428  0.2412 -0.5172  0.2122
39300W        W70516  20.806  26.459   1.556 -0.0931 -0.1240  0.0991
39301W        W70517   2.334  21.558  10.068  0.3770  0.0548  0.0088
39302W        W70518  22.156  19.506   0.709 -0.2163 -0.1222 -0.2836
39303W        W70519  17.340   6.455   3.270  0.2781 -0.0927 -0.0145
39304W        W70520  19.523   8.010   1.967  0.0497  0.0837 -0.2282
39305W        W70521  14.981  25.305   9.496 -0.1608  0.2131  0.0334
39306W        W70522   6.802  17.689   3.222  0.0072  0.1452  0.1673
39307W        W70523   6.741   9.669  10.408 -0.1112 -0.0575 -0.1300
39308W        W70524  13.508   4.759   9.461  0.0344  0.3334 -0.0812
39309W        W70525  27.559  24.873   9.551 -0.0642  0.1231 -0.1374
39310W        W70526   5.397   6.054   2.184 -0.2039  0.1748  0.2644
39311W        W70527  19.358  18.840   8.998 -0.2794 -0.3218 -0.2088
39312W        W70528   1.048  20.488   8.173  0.0590  0.0130  0.0741
39313W        W70529  16.966   4.653   1.391  0.1847 -0.4078  0.2074
39314W        W70530  17.858  14.208   1.222 -0.1853 -0.0443 -0.1819
39315W        W70531   6.275  21.082   8.851  0.2395 -0.1929 -0.5014
39316W        W70532  17.388  18.555   8.723  0.2397  0.0397 -0.0565
39317W        W70533   0.828  11.677   0.313  0.2375 -0.3784 -0.1422
39318W        W70534  12.203  18.859  10.167  0.0274  0.1056 -0.0849
39319W        W70535   9.940  12.719   3.532  0.0885 -0.0523  0.0770
39320W        W70536   4.932  25.285   8.582  0.4312  0.0281  0.0496
39321W        W70537   1.530  13.144   8.853  0.1183 -0.2691  0.3698
39322W        W70538  16.202   6.476   3.735 -0.1170 -0.1605  0.2373
39323W        W70539   5.941   8.059   1.520 -0.1220 -0.1836  0.2437
39324W        W70540  19.448  13.660   9.462  0.3403 -0.1731  0.0856
39325W        W70541  23.961   1.914   7.281 -0.0177  0.0345  0.0076
39326W        W70542  23.988   5.165   8.244  0.1500 -0.0921  0.0908
39327W        W70543  19.206  14.100   1.368  0.0670  0.0395  0.1319
39328W        W70544  16.129   8.338  10.228  0.0424 -0.0887  0.0715
39329W        W70545  13.523  20.640   3.305  0.2025 -0.0292 -0.0522
39330W        W70546  24.580  10.663   2.062  0.0313 -0.2394 -0.0415
39331W        W70547  22.209  19.069   9.386  0.1867  0.0619 -0.0174
39332W        W70548   0.592   2.181   2.218  0.3476  0.1957 -0.1554
39333W        W70549  15.263  10.799   0.551 -0.3380  0.0234  0.2260
39334W        W70550  14.860  26.080   1.231  0.2266 -0.0532  0.1260
39335W        W70551  21.909  21.682   3.738  0.2634 -0.2480 -0.0389
39336W        W70552  20.763  18.207   7.225  0.0228 -0.0755  0.0054
39337W        W70553  21.282  25.669   8.245  0.1609 -0.0623  0.0199
39338W        W70554  17.553  14.186   2.088  0.3107  0.1981 -0.1892
39339W        W70555   9.785  12.895  10.270  0.0509  0.4517 -0.2363
39340W        W70556  26.290  23.404   1.390  0.0689  0.0929 -0.1243
39341W        W70557   2.578   0.965   8.686 -0.2422  0.0349  0.2500
39342W        W70558  11.361  21.270   7.959  0.2908  0.2343  0.2660
39343W        W70559  21.574   3.170  10.367 -0.3448 -0.2005  0.0368
39344W        W70560  23.518  24.422   0.604 -0.0334 -0.3087  0.0722
39345W        W70561   7.983  12.079  10.157 -0.0401 -0.2591  0.1222
39346W        W70562  10.546  20.079   1.091  0.3035  0.0144  0.0629
39347W        W70563   3.398  12.064   8.270 -0.0101  0.3297  0.1021
39348W        W70564   2.046   3.750  10.405 -0.0731  0.0214 -0.0047
39349W        W70565   3.198  17.506   8.443 -0.1588 -0.1483  0.0318
39350W        W70566   0.484   5.210   0.863 -0.0763  0.0646  0.0292
39351W        W70567  22.321  23.244   0.307  0.2805 -0.0683 -0.2422
39352W        W70568  20.964  26.126  10.348  0.3231 -0.0815 -0.2307
39353W        W70569  14.432  23.176   1.049  0.3246 -0.0863 -0.1307
39354W        W70570   2.130   7.916  10.147  0.0433  0.1622  0.1808
39355W        W70571   4.217  19.353   2.139  0.1441 -0.2942 -0.0326
39356W        W70572  21.719   2.862   2.628  0.0564  0.0651  0.3398
39357W        W70573  22.598   7.385   7.487 -0.1289 -0.0916  0.1724
39358W        W70574  14.269   4.859  10.519  0.2929  0.3044 -0.0754
39359W        W70575  10.500   1.175   7.890  0.3727 -0.0351  0.0901
39360W        W70576  18.077  13.624   1.812  0.2892  0.2093 -0.0105
39361W        W70577  12.579  15.134   8.435  0.2587  0.2076 -0.3817
39362W        W70578   4.408  23.923   8.864 -0.2236  0.1511 -0.2205
39363W        W70579   3.625   7.785   1.547 -0.1455 -0.0448 -0.0142
39364W        W70580   5.178  16.183  10.019  0.0275  0.1580 -0.5375
39365W        W70581   7.357   6.432   9.510  0.3133 -0.5197 -0.2317
39366W        W70582  19.158  21.211   1.170  0.0313  0.0796 -0.0227
39367W        W70583   9.519  21.475   8.065 -0.1504  0.5095  0.1372
39368W        W70584  17.104  19.783   0.315 -0.2563 -0.1159 -0.2762
39369W        W70585  18.835  16.941   8.425  0.4887 -0.0869  0.2538
39370W        W70586  25.083  13.312  10.531  0.1316  0.0078  0.1303
39371W        W70587   6.750  25.007   3.178  0.2647  0.0491 -0.1831
39372W        W70588  13.169  18.397   2.183  0.0345  0.2024  0.0961
39373W        W70589  12.166   6.027   7.881 -0.0034  0.2211  0.1497
39374W        W70590  26.109  14.714   3.346 -0.0984 -0.0185 -0.0891
39375W        W70591   6.649   9.391  10.008  0.1964 -0.2006 -0.2021
39376W        W70592   4.263   6.019  10.107  0.4168 -0.2578  0.1935
39377W        W70593  20.048   0.385   8.078 -0.2096  0.0522 -0.0101
39378W        W70594   9.190  12.115   1.362 -0.1915 -0.1264  0.0525
39379W        W70595  24.814   8.016   1.534 -0.0722 -0.0560 -0.2028
39380W        W70596  25.590   0.767   1.420 -0.3142  0.0007 -0.1945
39381W        W70597  12.025  13.443   9.985 -0.1145  0.0735 -0.0722
39382W        W70598  18.157  11.562   1.472  0.0633  0.2206  0.0032
39383W        W70599   6.285  25.409   0.687  0.2955 -0.1469 -0.0951
39384W        W70600  23.843   3.481   8.456 -0.0465 -0.2601 -0.1195
39385W        W70601   6.512  14.226   0.426 -0.1488 -0.3339  0.3656
39386W        W70602  25.898  26.072   9.962  0.0621 -0.2152  0.0513
39387W        W70603   0.193   9.403   3.019 -0.0871  0.3878  0.1231
39388W        W70604  22.889   9.502   9.863 -0.1436  0.1009 -0.0676
39389W        W70605   6.084   3.472   8.350 -0.0573  0.0096  0.2801
39390W        W70606  21.992  12.782   1.704 -0.1908  0.1848  0.1210
39391W        W70607  18.609  21.201   1.363 -0.0259 -0.1039 -0.4752
39392W        W70608  13.239  15.505   9.142 -0.1996  0.0298 -0.3626
39393W        W70609  26.199   5.992   0.222  0.1000  0.0842  0.1773
39394W        W70610   4.972  16.449  10.386  0.0773 -0.0756  0.3541
39395W        W70611  21.887  11.868   9.101  0.1394 -0.1604 -0.0055
39396W        W70612  12.500  17.192   8.976  0.0579 -0.1652  0.1818
39397W        W70613  20.375  12.774   7.793  0.0457 -0.0322 -0.3261
39398W        W70614  10.634  10.421   0.633  0.0186  0.1669 -0.3168
39399W        W70615   5.326  18.576   8.041  0.1476  0.0043  0.0288
39400W        W70616  21.042  11.219   2.116 -0.0640 -0.0425 -0.0625
39401W        W70617   5.908  23.944   9.486  0.2227  0.0178 -0.0947
39402W        W70618  23.315   3.469   1.941 -0.4766  0.0551 -0.0240
39403W        W70619  11.961  14.517  10.201 -0.0154 -0.0682 -0.0028
39404W        W70620   7.927   5.941   1.329 -0.0508 -0.2434 -0.0289
39405W        W70621   3.709  22.676   8.280 -0.0695 -0.0409  0.0800
39406W        W70622  25.589  26.642   0.970 -0.1483 -0.0843  0.0763
39407W        W70623   7.476  24.314   9.433 -0.2769 -0.0683  0.1029
39408W        W70624  23.696  13.036   1.443 -0.0861  0.0028  0.0226
39409W        W70625  26.237  27.461   2.122  0.1485 -0.0914 -0.1478
39410W        W70626  27.431  14.109  10.445 -0.1865  0.2284 -0.0642
39411W        W70627   2.822  16.063  10.489 -0.0343  0.2238 -0.3963
39412W        W70628  16.018  13.193   1.570 -0.1476  0.1586  0.0125
39413W        W70629  11.268  25.612   3.150  0.5429 -0.0410  0.2041
39414W        W70630  18.043  16.630   8.171  0.4304  0.1183 -0.0393
39415W        W70631  24.119  13.557   2.149  0.2699 -0.2332  0.1221
39416W        W70632   9.736  16.637   0.598 -0.2459 -0.2356  0.1948
39417W        W70633  10.673  25.939   0.687  0.1730  0.1741 -0.1286
39418W        W70634  27.157  11.704   0.979  0.0420  0.2703 -0.0735
39419W        W70635   1.574   7.121   3.288  0.1228 -0.1452  0.0411
39420W        W70636  26.597  22.861   1.810  0.0929  0.1436  0.4956
39421W        W70637   8.800   8.720   1.475 -0.0104  0.1096 -0.1001
39422W        W70638   4.267   9.274   3.822 -0.0969  0.1153  0.1326
39423W        W70639  17.806  22.206   1.272  0.0076 -0.1847 -0.0577
39424W        W70640   6.802  11.320   1.663  0.1621 -0.0813 -0.0433
39425W        W70641  18.588  19.089   8.574  0.1742 -0.0607 -0.4018
39426W        W70642   0.054  10.033   0.130  0.0149 -0.1126  0.6061
39427W        W70643   2.428   7.556  10.045 -0.2651 -0.0315 -0.1550
39428W        W70644   6.883  20.778   3.086  0.3718  0.3522  0.0417
39429W        W70645  21.803  10.509   2.315 -0.2212 -0.2276 -0.2606
39430W        W70646  27.517   7.871   3.082  0.1033 -0.0490 -0.1163
39431W        W70647  10.794  18.531   8.581  0.2191  0.0762  0.2624
39432W        W70648   6.234   2.537   9.045 -0.0366 -0.0045  0.1219
39433W        W70649  19.329   1.948   9.323  0.0770  0.0428  0.2780
39434W        W70650  21.520  24.538   1.419  0.1824 -0.3804 -0.1555
39435W        W70651  23.006  19.614   1.691 -0.2171  0.0230  0.0942
39436W        W70652  15.915  14.984   8.731 -0.1444  0.1026  0.1801
39437W        W70653  12.113  16.213   9.356  0.1090 -0.2637 -0.1942
39438W        W70654  22.583   4.939   9.158  0.1161  0.2034  0.2137
39439W        W70655   8.648   5.245   2.798  0.0960 -0.2481  0.1221
39440W        W70656  20.532   3.820   2.187  0.1079  0.0252  0.0615
39441W        W70657  26.947  18.086  10.326  0.1752 -0.1653 -0.0498
39442W        W70658  13.805   2.528   8.328  0.0090  0.1868 -0.0862
39443W        W70659   2.910  16.220   1.634  0.0035  0.1803 -0.1562
39444W        W70660  18.797  25.420   9.383  0.2033  0.1958  0.0622
39445W        W70661   1.143   3.662   2.695  0.0792  0.0652 -0.0156
39446W        W70662  25.919  20.491   8.107  0.4899 -0.1334  0.1321
39447W        W70663  10.160  11.613   9.830 -0.0712 -0.1111  0.0856
39448W        W70664  11.839   4.654   3.565  0.0523  0.2194  0.2037
39449W        W70665  21.073  13.589   2.093 -0.0961 -0.0749 -0.0170
39450W        W70666  17.413   6.208  10.264 -0.0649  0.0234  0.0001
39451W        W70667  22.890  15.520   1.447 -0.0654 -0.1797 -0.0563
39452W        W70668   0.006  14.414   0.842 -0.1558 -0.1448 -0.2857
39453W        W70669   1.657  21.094   9.617 -0.1487 -0.1436  0.3203
39454W        W70670  23.155  22.305   3.010  0.0208 -0.3162 -0.0242
39455W        W70671  27.256  26.889   0.819 -0.2396  0.2001 -0.1346
39456W        W70672  24.692  12.181   8.465 -0.1905 -0.0957  0.0420
39457W        W70673   0.828  10.120   9.027  0.0602  0.2371 -0.1817
39458W        W70674  16.005  19.584   9.367  0.1233 -0.2518 -0.2604
39459W        W70675   4.461   0.093   1.365  0.1248  0.0239  0.1468
39460W        W70676  14.136  25.279   0.584  0.0569  0.1483  0.4304
39461W        W70677  25.035   5.210   8.726  0.0724  0.1084  0.1929
39462W        W70678  16.606  25.661   1.655 -0.0525  0.1659  0.3980
39463W        W70679  26.788   3.706   0.591 -0.3345 -0.0384 -0.1280
39464W        W70680  20.429  17.442  10.028 -0.0710 -0.2029  0.0168
39465W        W70681  11.497  26.601   0.104  0.0839 -0.2607 -0.1305
39466W        W70682  19.915   1.421   9.736 -0.0504  0.1953 -0.0230
39467W        W70683  25.593  20.288   2.063 -0.2053 -0.0676 -0.2453
39468W        W70684  21.451  12.502   9.840 -0.0355  0.0204 -0.0154
39469W        W70685  16.282  10.480   8.187 -0.1550  0.1579 -0.1717
39470W        W70686   4.509  25.385   0.886  0.0212  0.0052 -0.4119
39471W        W70687  13.333   5.710   7.650  0.0147  0.0604 -0.1700
39472W        W70688  18.048   5.915   0.230 -0.4603 -0.0662  0.1664
39473W        W70689   7.761  18.422   7.843  0.0140 -0.0751 -0.1968
39474W        W70690  25.202  26.281  10.537  0.1823 -0.1495 -0.0668
39475W        W70691   9.296  14.544   1.278  0.1849  0.0867 -0.0102
39476W        W70692   8.974  17.640  10.125  0.0436 -0.0890  0.1291
39477W        W70693  17.012  10.488   8.119 -0.2414 -0.1986 -0.0563
39478W        W70694  23.012   6.529   8.397  0.0443  0.2413  0.2357
39479W        W70695  18.766  25.416   1.700 -0.1464 -0.3092 -0.2303
39480W        W70696   9.947   6.854   9.189  0.0296 -0.1552 -0.3208
39481W        W70697  12.407  13.730   0.283 -0.0671  0.0624  0.1788
39482W        W70698   3.463  21.197   1.398  0.1012  0.1245  0.0373
39483W        W70699  24.098   6.877   8.350 -0.2096  0.0688  0.1801
39484W        W70700  20.404  22.362   7.829  0.5052 -0.1175  0.0987
39485W        W70701   7.152  12.422   9.124  0.0251 -0.2349 -0.0255
39486W        W70702   5.136   9.429   7.694  0.2763  0.0624 -0.0245
39487W        W70703   0.990  23.685   1.380 -0.0809  0.0923  0.1587
39488W        W70704  24.283  17.184   0.900  0.2896  0.0621  0.0757
39489W        W70705  14.617  22.281  10.342 -0.0411 -0.2208 -0.2181
39490W        W70706   4.098   9.224   8.147 -0.1175 -0.2278 -0.3028
39491W        W70707   3.966  17.081   0.085  0.1361  0.3178  0.1513
39492W        W70708  19.928   3.968   9.896 -0.1000 -0.1928  0.1171
39493W        W70709  21.637   2.245   1.093 -0.0048  0.2489  0.0900
39494W        W70710  24.554   0.389   2.005 -0.0796 -0.5518 -0.4832
39495W        W70711  22.544  11.381   0.288 -0.4118  0.1341 -0.0994
39496W        W70712  18.471   9.550   8.681 -0.0170 -0.0676 -0.1373
39497W        W70713  25.137  15.615  10.248  0.0717  0.0557 -0.0022
39498W        W70714  27.100  27.241   8.751 -0.2083  0.0498  0.0833
39499W        W70715  17.333   8.587   7.655 -0.2014  0.1032 -0.1200
39500W        W70716   0.780  22.782   0.148  0.4541  0.0015 -0.3459
39501W        W70717  11.844   4.523   0.537  0.1087 -0.0169  0.0307
39502W        W70718  11.534  24.689   2.532 -0.0913  0.2472  0.2689
39503W        W70719  26.644   5.779   3.518 -0.1550  0.0551  0.0602
39504W        W70720  11.612  16.239   0.046  0.3309  0.0446 -0.0071
39505W        W70721  10.485  18.783  10.338 -0.3177 -0.0489  0.0414
39506W        W70722   7.221  24.932   2.081 -0.1354  0.1982  0.0278
39507W        W70723  13.529   1.131   3.223  0.0607 -0.0252  0.0503
39508W        W70724   6.085  24.136   2.377  0.0371 -0.0959  0.2919
39509W        W70725  12.930  15.697   1.765 -0.1514 -0.2749 -0.0265
39510W        W70726   3.521   2.555  10.042  0.0471  0.2345 -0.0553
39511W        W70727  22.070   8.984   9.909 -0.1208 -0.0440 -0.1043
39512W        W70728  19.033  12.682   3.430  0.1075 -0.0820  0.0474
39513W        W70729  21.995   3.885   9.451  0.0187 -0.0493 -0.0528
39514W        W70730  16.574  23.574   3.501 -0.0610 -0.2281 -0.0316
39515W        W70731  15.069   7.734   3.623 -0.1892 -0.1055  0.0125
39516W        W70732  22.429   0.728   8.215 -0.0289 -0.1987  0.2830
39517W        W70733  15.795  15.142   2.225 -0.0486  0.1294  0.2388
39518W        W70734  22.345  13.627   2.674 -0.0777 -0.4827  0.3044
39519W        W70735  26.543  12.217   0.992  0.2260 -0.0085 -0.0108
39520W        W70736  15.490  22.709   7.989 -0.2357 -0.0239  0.2250
39521W        W70737  19.628  18.931   2.782  0.1677  0.1805  0.0764
39522W        W70738  27.556  23.816  10.473 -0.3263  0.0487  0.2311
39523W        W70739  12.981  22.786   0.638  0.3030  0.2131 -0.2036
39524W        W70740   1.463   9.722   8.210  0.3035  0.1434  0.1433
39525W        W70741  19.052  22.786  10.015 -0.1688  0.1177 -0.2690
39526W        W70742  24.531   6.683  10.231  0.0967 -0.1332 -0.1556
39527W        W70743   2.637   0.451   1.998  0.2109  0.0726 -0.3571
39528W        W70744   1.350   4.791   2.092 -0.0409  0.1251  0.0282
39529W        W70745  20.697  12.675   8.207 -0.1406  0.0685 -0.2442
39530W        W70746  27.322  18.985   1.140  0.1023 -0.1723  0.1704
39531W        W70747  12.260  15.743   0.970 -0.1084 -0.2445  0.0547
39532W        W70748   7.964   4.869   1.336  0.1281  0.0521 -0.0757
39533W        W70749   0.783  14.760   8.845  0.0718  0.0337 -0.0514
39534W        W70750   0.423  21.765   1.886  0.2725 -0.0561  0.0697
39535W        W70751   6.621  15.655   9.624 -0.2696  0.2226  0.5687
39536W        W70752  27.448   4.576   8.438  0.3171  0.1184  0.1870
39537W        W70753  14.833   3.082   0.632  0.4259 -0.3398 -0.1578
39538W        W70754  12.575  10.808   2.283 -0.6930  0.1748  0.0727
39539W        W70755  14.499  17.990   1.338 -0.2427 -0.0992 -0.1643
39540W        W70756   2.820  23.734   2.991  0.0841  0.2864 -0.0580
39541W        W70757   9.883   3.335   7.221 -0.0150 -0.1423  0.0921
39542W        W70758   6.766   0.753   1.383  0.1791  0.1505  0.2136
39543W        W70759   2.778  19.449   2.270  0.1234  0.0638 -0.0339
39544W        W70760   6.151  22.962   1.209 -0.1103 -0.1182  0.0393
39545W        W70761   6.239   6.664  10.178  0.2685 -0.0861 -0.0077
39546W        W70762  16.360  18.323   0.629 -0.1982  0.0857 -0.1417
39547W        W70763   7.187  10.667   2.081 -0.0959 -0.0338 -0.0172
39548W        W70764  22.752  19.844   8.579 -0.0485  0.0270 -0.0973
39549W        W70765  22.883   5.295  10.193  0.0453  0.2021  0.2977
39550W        W70766  14.789   1.587   0.460 -0.1168  0.2438  0.0065
39551W        W70767   6.907  12.446   8.665  0.1226 -0.1711  0.1616
39552W        W70768  25.072  18.800   0.327  0.1429 -0.0197  0.0794
39553W        W70769  16.833   4.836   1.985  0.0250  0.1956  0.3470
39554W        W70770   3.444  10.056  10.037 -0.3572  0.2286 -0.0542
39555W        W70771  16.508  22.565   8.193 -0.2833 -0.1052  0.0491
39556W        W70772  12.041   4.788   2.137 -0.1511  0.1172  0.2166
39557W        W70773  19.222   9.853   1.255 -0.1121 -0.1900  0.0304
39558W        W70774  20.419   4.298   8.825  0.0508 -0.2179  0.1483
39559W        W70775  11.619   1.388   1.789  0.4283  0.3271  0.2333
39560W        W70776  17.026   5.402   7.400  0.1485 -0.0353  0.2388
39561W        W70777  23.200   9.709   8.499  0.0474  0.0874  0.1743
39562W        W70778   5.746   9.232  10.223  0.2362 -0.0924  0.0082
39563W        W70779  19.526   6.775   7.524 -0.2193  0.0513  0.0515
39564W        W70780   3.613  10.364   9.118 -0.1536 -0.0538 -0.1312
39565W        W70781   1.433   6.257   7.905 -0.1438 -0.2467  0.0806
39566W        W70782  16.002  25.798   2.888 -0.0172 -0.3513 -0.0162
39567W        W70783  17.998   7.928  10.239 -0.0115  0.1254 -0.0297
39568W        W70784  27.199  18.616   1.860 -0.0180 -0.3033  0.0250
39569W        W70785  22.040  19.603   0.218 -0.0116  0.1102  0.3761
39570W        W70786  14.668  18.962   0.348  0.2755  0.1761  0.0563
39571W        W70787  26.009  17.449   2.637  0.2761  0.1099  0.0465
39572W        W70788  27.179  21.520   8.952 -0.0989  0.0893  0.4053
39573W        W70789   5.256  21.698   0.587  0.1770  0.1749 -0.0292
39574W        W70790  12.881  27.187   1.649 -0.1733 -0.0090 -0.0603
39575W        W70791  11.559  17.579   2.251  0.1697  0.2129  0.0428
39576W        W70792  22.711   3.304   1.362  0.2523 -0.0597 -0.2090
39577W        W70793  26.764  22.248   0.580 -0.0630  0.1501  0.3189
39578W        W70794   3.056  18.440   7.878  0.1268  0.0293 -0.1403
39579W        W70795  13.157   6.114   7.901 -0.2805 -0.0633  0.2356
39580W        W70796   9.182  10.063   7.872 -0.0367 -0.0536 -0.0930
39581W        W70797   6.689  18.261   3.344 -0.0283  0.0468 -0.2612
39582W        W70798  23.446  19.444   1.394 -0.2709 -0.0020  0.0316
39583W        W70799  19.584  17.561   3.637 -0.3269 -0.1109  0.0909
39584W        W70800  26.286  15.605   8.582 -0.2100  0.1416  0.5982
39585W        W70801  23.194   0.295   2.170 -0.0498  0.3472  0.1446
39586W        W70802  27.134  20.540   9.064  0.1788  0.2068  0.0905
39587W        W70803   4.762   5.023   1.849 -0.0180  0.0547  0.0094
39588W        W70804  26.214  10.481   0.082 -0.1303 -0.2311  0.0756
39589W        W70805  22.771   5.554   0.828  0.3873 -0.3053 -0.1670
39590W        W70806   6.573   6.433   8.404 -0.2229 -0.1634 -0.2430
39591W        W70807  12.776  18.364   1.863  0.2907  0.2551 -0.0861
39592W        W70808  10.437  16.230   2.752  0.1941 -0.1544 -0.0190
39593W        W70809   2.424  18.645  10.484  0.2498 -0.0617  0.2272
39594W        W70810   2.625   9.972   1.286  0.3149 -0.0896  0.1118
39595W        W70811   9.103  20.510   8.098 -0.0899 -0.1215  0.1670
39596W        W70812   5.544   3.905   9.083  0.1306 -0.1310  0.1102
39597W        W70813  21.857  18.710   9.353 -0.1327  0.2339 -0.0859
39598W        W70814  23.735   1.996   1.518 -0.0111  0.3515  0.3246
39599W        W70815  11.987  15.670  10.043  0.1088  0.3431  0.3734
39600W        W70816  12.013  13.954   8.445 -0.0325 -0.3214  0.1846
39601W        W70817  16.838   2.859   0.559  0.3159  0.0718 -0.0071
39602W        W70818   7.819  16.215   3.162 -0.0247  0.1599 -0.1034
39603W        W70819  17.982  24.063  10.256  0.2259  0.2249 -0.0245
39604W        W70820  12.990  22.974   8.456  0.3646 -0.3493 -0.1100
39605W        W70821  10.111   8.291   0.360  0.3258  0.3500  0.0780
39606W        W70822  12.978   1.285   9.135  0.0733  0.1502  0.0227
39607W        W70823  23.256  20.479   9.859 -0.2667  0.1563 -0.3499
39608W        W70824  14.221  17.637   3.235 -0.2680 -0.1745  0.0826
39609W        W70825  10.725   3.259   1.320 -0.0064 -0.1604 -0.2747
39610W        W70826  25.511  13.938  10.025  0.2776  0.0011  0.1019
39611W        W70827   9.847   4.670   7.948  0.0189 -0.4298 -0.3436
39612W        W70828  13.064   4.488   8.816 -0.0974 -0.2164 -0.0924
39613W        W70829  21.924   3.135   3.450  0.0404  0.0553  0.1942
39614W        W70830  18.270  16.704   9.168  0.1771 -0.0455 -0.0048
39615W        W70831   9.443  13.506   7.566 -0.0985  0.3639 -0.0346
39616W        W70832  22.292  18.705   0.496  0.2562  0.0514  0.1561
39617W        W70833  19.988   4.724   0.790 -0.3730  0.2402 -0.2793
39618W        W70834   8.342   2.557   7.089 -0.3987  0.0889 -0.0694
39619W        W70835   5.643  22.433   3.236 -0.0410  0.3011 -0.1105
39620W        W70836  19.562   4.035   2.060  0.0796  0.1822  0.4739
39621W        W70837  20.096  14.086   8.672  0.2971 -0.2233 -0.0100
39622W        W70838  20.121  21.185   0.089  0.2800 -0.0936 -0.0068
39623W        W70839   7.766  23.496   3.463  0.2023  0.1632  0.0372
39624W        W70840  18.002  24.006   1.668  0.1773 -0.0659  0.2794
39625W        W70841   9.242  24.810   8.837 -0.3350 -0.0167  0.0633
39626W        W70842  27.287   0.327   7.862 -0.1274  0.1681  0.0928
39627W        W70843   4.349  15.625   0.364  0.1963  0.1994  0.0748
39628W        W70844  21.596  19.727   1.429 -0.1565  0.2330 -0.0750
39629W        W70845   0.802  22.165   1.946 -0.0742 -0.0098  0.0129
39630W        W70846  20.980   3.978   0.119  0.1394  0.2037 -0.1422
39631W        W70847  21.441   4.369   7.445  0.0204  0.0236  0.3487
39632W        W70848  25.229   5.734   1.581  0.0057 -0.1123 -0.2058
39633W        W70849   5.871   4.931   8.662 -0.0307  0.0086 -0.1344
39634W        W70850  13.698  23.463   9.621 -0.3224  0.1778  0.1087
39635W        W70851  15.077   8.740   9.445 -0.1442  0.0316 -0.0628
39636W        W70852  12.489  18.495   9.938 -0.0110  0.2248  0.1702
39637W        W70853   5.112  21.633   2.359  0.0970 -0.0421  0.2369
39638W        W70854  26.202   0.110   0.845 -0.2832  0.0815 -0.1398
39639W        W70855  22.217  10.762   7.822  0.1299  0.0674 -0.0898
39640W        W70856  23.629   0.057   2.446 -0.0754 -0.3112 -0.2430
39641W        W70857  22.885  18.826  10.038 -0.3593 -0.0187 -0.0828
39642W        W70858  20.617  20.640   7.820 -0.3349 -0.1378  0.0206
39643W        W70859  10.572  12.757   3.470  0.3513 -0.1141 -0.0209
39644W        W70860  11.987  18.266   1.820  0.3560 -0.1801 -0.2594
39645W        W70861  13.238  11.693   2.273  0.3814 -0.2847 -0.3112
39646W        W70862  19.281   1.847  10.526  0.0159  0.0688 -0.0407
39647W        W70863  11.406  24.932   8.270 -0.0777 -0.1893 -0.0084
39648W        W70864  17.601  18.169   8.000  0.0731  0.0745  0.2127
39649W        W70865  24.178  24.934   6.962 -0.2458  0.0221  0.1433
39650W        W70866  21.231   0.550   2.942  0.2935 -0.0227  0.1158
39651W        W70867  14.432  24.546   2.619 -0.1227 -0.0449 -0.3148
39652W        W70868   7.215  18.776   1.035  0.0418 -0.1194  0.0217
39653W        W70869   8.730  14.978   9.212  0.0611  0.1640  0.2592
39654W        W70870  17.002  11.301   1.898 -0.2750  0.2131  0.1812
39655W        W70871   8.746   6.688  10.183 -0.0846 -0.1752  0.1060
39656W        W70872  23.543  17.294   9.634 -0.1612  0.0878  0.2450
39657W        W70873   8.354  17.592   0.253  0.0478 -0.2242  0.0037
39658W        W70874   2.746   6.766   8.891  0.1375  0.1266 -0.0084
39659W        W70875   9.687  25.918   1.672 -0.1035  0.0494 -0.2669
39660W        W70876  25.306  14.733   7.838  0.2406 -0.1745 -0.1824
39661W        W70877  18.137   1.255   7.980  0.0641  0.2397  0.2437
39662W        W70878  12.363  11.989   8.535  0.1227  0.1309 -0.2071
39663W        W70879   2.726  26.750   0.114  0.1130  0.0255  0.0772
39664W        W70880  18.712   0.832   9.442  0.1848 -0.1824 -0.0765
39665W        W70881  13.756  20.940   0.130 -0.0246 -0.1462 -0.0822
39666W        W70882  10.934  18.218   0.915  0.2835 -0.1368  0.1823
39667W        W70883  25.880  18.756  10.329  0.1727 -0.0340  0.2514
39668W        W70884  10.699   8.529   2.282 -0.1132  0.1004 -0.0646
39669W        W70885  19.537   8.618   1.809  0.1050 -0.6108  0.0057
39670W        W70886   0.482  26.288   1.323  0.0509 -0.1552  0.1177
39671W        W70887  23.613  21.421   0.126 -0.2189  0.0360  0.0842
39672W        W70888   7.197  20.214   3.778  0.1822 -0.3486  0.0348
39673W        W70889   9.966  20.854   2.117 -0.0035  0.2246 -0.0205
39674W        W70890  20.862  25.049   9.614  0.0006 -0.3359  0.0958
39675W        W70891  14.237   8.310   9.618  0.0342 -0.1515 -0.0818
39676W        W70892  19.007  11.283   0.455  0.0718 -0.1077  0.2029
39677W        W70893  14.151  22.978   8.971 -0.0838  0.0130  0.0991
39678W        W70894  24.874  26.163   2.518 -0.0559  0.0400  0.0307
39679W        W70895  26.663  23.039   2.291  0.2655 -0.2217 -0.2252
39680W        W70896  10.704   6.891   3.808 -0.1417 -0.1661 -0.0387
39681W        W70897  15.987  27.485   1.417  0.1240  0.2370 -0.3560
39682W        W70898  16.519  16.618   1.326  0.1219  0.0245  0.1769
39683W        W70899   7.423  23.198   3.121 -0.1106  0.3214 -0.1587
39684W        W70900  25.361   4.213   8.754 -0.5700 -0.1580  0.0767
39685W        W70901  18.031   7.952   0.730  0.1336  0.0938 -0.2564
39686W        W70902  13.050   9.371   2.938 -0.5787 -0.0495  0.4292
39687W        W70903  19.489  12.366   2.921  0.1691  0.3696  0.2993
39688W        W70904  26.744   0.067   2.367  0.0342 -0.2444 -0.2737
39689W        W70905   3.498   0.901   7.625 -0.0785  0.1936 -0.0923
39690W        W70906   4.465   0.756  10.542 -0.1268  0.2734  0.0056
39691W        W70907  14.577  11.478   8.937  0.0240  0.2117 -0.1562
39692W        W70908  18.121  17.581   9.872 -0.1767 -0.1701 -0.1046
39693W        W70909   9.879  15.748   9.156 -0.1683 -0.0407  0.0932
39694W        W70910  26.467  13.517   2.339 -0.0283 -0.1405  0.2141
39695W        W70911  18.118  26.742   3.612  0.1157  0.0523 -0.2013
39696W        W70912  24.108   0.655   1.998 -0.2394  0.0019 -0.1671
39697W        W70913  23.058   5.226   3.252 -0.0714  0.0303 -0.1928
39698W        W70914  27.296  19.507   1.063  0.1070  0.0263 -0.1021
39699W        W70915  15.419  12.730   2.680  0.0286  0.1306  0.1944
39700W        W70916   7.205  24.932   1.576  0.0485  0.4542  0.0926
39701W        W70917   1.354  19.205   3.206 -0.1702  0.2538  0.2810
39702W        W70918  10.214   8.053   3.094  0.0599 -0.3392 -0.0129
39703W        W70919   6.701   2.196   0.989  0.0720 -0.0034  0.3757
39704W        W70920  27.522  21.215   1.338  0.1124 -0.1421  0.2200
39705W        W70921  21.995   7.496   8.601 -0.2337  0.1724  0.0104
39706W        W70922  15.640  12.705   0.717  0.1306  0.0229 -0.1818
39707W        W70923  25.914   2.137   1.947 -0.1899 -0.4647 -0.1973
39708W        W70924   7.667   3.590   6.823 -0.2912 -0.0076  0.2703
39709W        W70925  24.351  10.556   7.897 -0.0475 -0.0426 -0.1205
39710W        W70926   8.286  14.540   1.143 -0.0377 -0.1162  0.0665
39711W        W70927   3.199  21.030   0.132  0.2601 -0.0799 -0.1345
39712W        W70928  11.529   5.408   9.373  0.2125  0.0856  0.0346
39713W        W70929  17.257   0.774   0.355 -0.0030  0.0784 -0.3551
39714W        W70930   6.472  11.434   9.193 -0.3275  0.0104 -0.0075
39715W        W70931  14.741  27.119   9.919  0.0389 -0.2760  0.3237
39716W        W70932  12.253   2.776  10.526  0.1571  0.0277 -0.0596
39717W        W70933   2.017   8.580  10.528  0.0723 -0.4214  0.0499
39718W        W70934   9.793  23.381   1.203 -0.2583  0.0601 -0.1087
39719W        W70935  18.564   5.989   3.370  0.2817 -0.0187 -0.1671
39720W        W70936  17.569  12.860   1.898  0.0066  0.0298  0.1317
39721W        W70937   6.801   7.080   8.908  0.2186 -0.1918 -0.0618
39722W        W70938   9.230  26.059   9.913 -0.2093 -0.1122 -0.0644
39723W        W70939   7.579   7.150   2.569  0.3181 -0.0867 -0.1613
39724W        W70940   7.336  11.837   7.918  0.0614 -0.0519 -0.0339
39725W        W70941   7.781  15.170   0.802  0.3129  0.0727  0.2346
39726W        W70942   6.518  17.009   8.475  0.5447  0.0612  0.1046
39727W        W70943  23.454  13.732   2.742  0.0434 -0.2033 -0.2619
39728W        W70944   9.618  16.936   9.426  0.1319  0.0818 -0.3451
39729W        W70945  22.114   8.445   3.316 -0.2135 -0.0836 -0.0999
39730W        W70946   3.005  26.839   2.629 -0.1157  0.3172  0.0058
39731W        W70947   0.505  23.773   1.584 -0.0413  0.1444 -0.1382
39732W        W70948  15.308  20.106  10.173 -0.0971  0.0401  0.1176
39733W        W70949  10.931   0.440   0.443 -0.4326 -0.0739 -0.1465
39734W        W70950  18.320  11.785   3.576  0.3760 -0.1564 -0.1369
39735W        W70951  14.583  22.990   2.552  0.1541  0.1593  0.0144
39736W        W70952  17.391  23.473   9.864  0.2494  0.0509  0.0044
39737W        W70953   4.474   7.535   8.001  0.1260 -0.3085 -0.2013
39738W        W70954  25.623   9.813   8.041  0.0374  0.1773 -0.0385
39739W        W70955   8.224  16.589  10.237  0.1945 -0.1648 -0.0036
39740W        W70956  26.116  14.485   2.885 -0.2831  0.0926  0.1206
39741W        W70957  24.254  25.959   9.213  0.0536 -0.0599  0.0984
39742W        W70958  23.427  12.045   2.827 -0.0429  0.2196  0.0274
39743W        W70959   8.889  20.258   2.705 -0.2274  0.0658 -0.0037
39744W        W70960   5.302  17.840   9.499 -0.1462 -0.1705 -0.1483
39745W        W70961   0.357   8.507   2.954 -0.1988 -0.0819 -0.0099
39746W        W70962  24.628   3.871   8.845  0.4585 -0.2777  0.4043
39747W        W70963   0.057  21.774   3.568 -0.0050  0.1868 -0.0755
39748W        W70964   5.909   4.894   0.313 -0.1554 -0.1407  0.1175
39749W        W70965  26.881   0.553   7.499  0.0897 -0.0909 -0.3143
39750W        W70966  18.533  22.862   2.804 -0.2541  0.0607 -0.1965
39751W        W70967  24.915   6.536   8.844 -0.3101  0.3795 -0.0282
39752W        W70968   2.942   7.454   2.216 -0.4976  0.1125 -0.0892
39753W        W70969   6.694   9.439   0.549 -0.0400  0.0279 -0.0887
39754W        W70970   7.709   0.502   9.691 -0.2494  0.1416  0.0806
39755W        W70971  10.775   3.413   8.751  0.1391 -0.0037 -0.0287
39756W        W70972   4.265   7.137   0.598 -0.3273 -0.0331 -0.0507
39757W        W70973  21.095   3.809   2.270  0.2622  0.0066 -0.0059
39758W        W70974   0.146  11.698   7.878  0.0891  0.0856 -0.1886
39759W        W70975   5.609  11.579   1.728  0.1559 -0.0668 -0.1439
39760W        W70976  14.738   8.261   3.244  0.0528  0.0652 -0.1978
39761W        W70977  21.699   8.889   2.731 -0.2043 -0.1153  0.1681
39762W        W70978   1.249  14.290   0.148 -0.1661  0.0564  0.2122
39763W        W70979  23.363   7.711   2.174  0.1125 -0.1486  0.0653
39764W        W70980   4.189  25.292   9.938 -0.0905 -0.1676  0.0980
39765W        W70981  20.807  13.428   0.659  0.0225  0.1860  0.4912
39766W        W70982   9.906   6.144   9.004  0.0140 -0.0888  0.1148
39767W        W70983  16.743  27.285   0.936  0.3351 -0.0741  0.1144
39768W        W70984   9.373   0.382   1.752  0.0460  0.1122 -0.1209
39769W        W70985  13.753   9.779   0.182  0.0340  0.1204  0.0783
39770W        W70986  21.159  20.432   1.126  0.2478 -0.3268  0.2024
39771W        W70987   9.919   9.277   1.876  0.1659  0.1427  0.0669
39772W        W70988  17.582  12.618   0.123  0.1422 -0.2959 -0.1271
39773W        W70989  17.905  12.555   0.477 -0.1704  0.2796  0.1483
39774W        W70990  20.432   6.124   2.594  0.1955 -0.3800 -0.0027
39775W        W70991  20.950  25.805   7.869  0.0750 -0.3446 -0.2731
39776W        W70992  20.676   5.851   3.215 -0.0666 -0.4334 -0.2444
39777W        W70993  26.271  21.356   1.960 -0.0214  0.2385  0.1960
39778W        W70994   6.461  25.503   7.992  0.3613 -0.0058  0.2140
39779W        W70995  12.191   3.412   8.608 -0.2629  0.0458 -0.0771
39780W        W70996  27.611  27.409   0.901  0.2335  0.1413 -0.0540
39781W        W70997   9.570  10.372   1.738 -0.0355  0.0080  0.2947
39782W        W70998  18.604  24.185  10.102 -0.0989  0.0773  0.0728
39783W        W70999  13.688  25.975   0.958 -0.0868 -0.1290  0.3131
39784W        W71000  12.006  23.420   9.507 -0.1601 -0.3590 -0.0741
39785W        W71001   6.278  25.200   4.030 -0.1178  0.0722  0.0252
39786W        W71002  27.154  22.670   0.443  0.1690  0.2693  0.2813
39787W        W71003  22.767  15.104   0.270  0.0656 -0.2637 -0.1404
39788W        W71004  10.392  25.268   1.180  0.3220 -0.1560 -0.2735
39789W        W71005   9.162  10.704   0.049 -0.0522 -0.0829 -0.0482
39790W        W71006  13.326  22.943   1.041 -0.1903 -0.0687 -0.0302
39791W        W71007   7.878   5.084  10.036 -0.0672 -0.0487 -0.1768
39792W        W71008   8.734   6.186   2.601 -0.1549 -0.2003  0.1917
39793W        W71009   4.734  14.787   0.850  0.1210  0.0134 -0.0432
39794W        W71010  22.755  27.048   9.206 -0.0803 -0.1048  0.0207
39795W        W71011   0.044  15.962  10.402  0.1476  0.1086  0.0637
39796W        W71012  17.814   5.417   0.308  0.0612  0.1291  0.1454
39797W        W71013  26.439  23.978   3.184 -0.3492  0.2618  0.3961
39798W        W71014   1.988  17.245  10.402  0.0642 -0.1679  0.1316
39799W        W71015  17.718   6.047   0.608  0.2031 -0.3893 -0.1673
39800W        W71016  24.323  20.681   0.232 -0.1991  0.1582 -0.3260
39801W        W71017  10.860  12.629   8.277  0.2346  0.0648 -0.0855
39802W        W71018   2.676  21.785   2.343  0.2024 -0.0318  0.0504
39803W        W71019  18.268  18.477   3.525  0.0155  0.2981 -0.1792
39804W        W71020  16.305   5.005   1.969  0.1608  0.0806 -0.0867
39805W        W71021   7.818  22.845   3.097 -0.1666 -0.0386  0.3110
39806W        W71022   3.418  12.361   3.068 -0.0513  0.1475  0.1252
39807W        W71023   1.234   2.585   7.830 -0.0390  0.1424  0.1590
39808W        W71024  17.382   4.330   1.771  0.3127  0.0927  0.2813
39809W        W71025  10.010  21.702   2.326  0.0566  0.3162 -0.1325
39810W        W71026  15.495  16.177   8.797 -0.0668 -0.0140 -0.1681
39811W        W71027  18.786  27.165  10.305 -0.0230  0.0496  0.0842
39812W        W71028   6.866  15.417   7.966  0.1246  0.0464 -0.0077
39813W        W71029  26.442  20.135   0.572  0.0533 -0.1082  0.1154
39814W        W71030   9.521  24.399   8.058  0.0049  0.0598 -0.1260
39815W        W71031   8.368  26.900   0.398  0.1359  0.3833  0.1792
39816W        W71032   2.934  21.041   3.062 -0.1166 -0.1650  0.0942
39817W        W71033  23.769  10.002   3.442  0.2907 -0.0550 -0.0532
39818W        W71034   2.514  26.316   0.814 -0.2936 -0.0487  0.1666
39819W        W71035  10.887  17.804   1.459 -0.2996  0.1227  0.3194
39820W        W71036   5.953  22.590   9.420  0.2172  0.0563 -0.2338
39821W        W71037  21.296  11.760   3.828  0.0878  0.1998 -0.1017
39822W        W71038  27.050  20.090   3.185 -0.0067 -0.0116  0.4438
39823W        W71039   9.281   1.534   2.280 -0.1350 -0.2868 -0.0922
39824W        W71040  18.901  11.771   9.716  0.3066 -0.0690  0.1921
39825W        W71041   3.344  13.812   1.233 -0.1215  0.3947  0.3304
39826W        W71042   1.450  22.056   8.578 -0.0025  0.0089  0.2132
39827W        W71043   7.287   3.828  10.292  0.0670 -0.0319  0.3289
39828W        W71044  24.511   8.539   9.023  0.3159 -0.0541  0.1847
39829W        W71045  23.345  14.225   9.504  0.5997  0.0846 -0.2167
39830W        W71046   6.652   5.827   9.257 -0.2680  0.0426 -0.2229
39831W        W71047  13.483  17.139   1.762 -0.2530 -0.0442 -0.2873
39832W        W71048  10.397  26.595   2.670  0.1383  0.0003  0.1613
39833W        W71049   0.692  25.656   2.607  0.2154 -0.1947 -0.0824
39834W        W71050   2.321  26.192   3.239 -0.1394 -0.1740 -0.0467
39835W        W71051  16.645  23.926   9.221 -0.1075 -0.0517 -0.2076
39836W        W71052  15.721  19.628  10.317  0.0304 -0.0547 -0.2303
39837W        W71053  21.124   0.044  10.365 -0.0680  0.0735 -0.1886
39838W        W71054  24.902  13.536   7.578 -0.0647 -0.0311 -0.0229
39839W        W71055  27.483   1.436   2.096  0.3314  0.0302 -0.0889
39840W        W71056  13.080   8.346   3.173  0.1911  0.1641 -0.0838
39841W        W71057  24.249  19.159   2.899  0.0394 -0.0832 -0.0980
39842W        W71058   3.020  22.972   1.467  0.2329 -0.0117 -0.5109
39843W        W71059  22.007  11.605  10.520  0.0400  0.1408  0.0056
39844W        W71060  26.729  18.016   2.296 -0.1765  0.0376 -0.1443
39845W        W71061   1.199  15.631   0.550  0.0442 -0.0753 -0.2060
39846W        W71062  24.614   0.345   1.277  0.1697 -0.1867  0.1650
39847W        W71063  24.452  12.679   0.111  0.1737 -0.2799  0.0732
39848W        W71064  15.793   2.764  10.263  0.2811  0.0956  0.2981
39849W        W71065  22.493  22.612  10.527 -0.2178 -0.0497  0.1033
39850W        W71066  19.982  26.791   9.864  0.0749  0.4228 -0.4183
39851W        W71067  27.433  22.139   7.068  0.1354  0.0159  0.0812
39852W        W71068  19.421   7.378  10.235 -0.1269  0.4046 -0.0115
39853W        W71069   3.634  22.116   2.217  0.0617 -0.2145  0.5308
39854W        W71070   7.755  14.348   8.425 -0.2234 -0.0978 -0.0527
39855W        W71071   6.971  20.655   0.966 -0.1314  0.1691  0.0219
39856W        W71072  24.814  18.000   0.185  0.3885 -0.0520 -0.0272
39857W        W71073   9.177   8.003   9.655 -0.4567  0.2358 -0.0045
39858W        W71074  25.107  17.043   8.193  0.0586 -0.3286  0.0416
39859W        W71075  15.768  22.845   1.453  0.1051  0.2021 -0.2268
39860W        W71076  25.564   4.889   0.761  0.0565  0.0570  0.2301
39861W        W71077   7.566   1.402  10.103 -0.1024  0.1215 -0.1998
39862W        W71078   1.496  22.915   9.250  0.2421 -0.2480  0.0979
39863W        W71079   3.728  13.952   7.487  0.0212 -0.1959  0.3577
39864W        W71080  11.401   7.120  10.301  0.2469 -0.0450 -0.0105
39865W        W71081  15.440  22.736   1.889  0.3276 -0.0016 -0.0743
39866W        W71082  14.261  27.499   0.605 -0.0347 -0.1089  0.0831
39867W        W71083  18.162  15.452   1.783  0.1371 -0.0853  0.2331
39868W        W71084  19.692   0.615   2.244  0.0707  0.0397 -0.1253
39869W        W71085  24.143  26.927   1.969 -0.1438 -0.0234 -0.0749
39870W        W71086  15.439  20.373   2.788  0.1220 -0.4642  0.0778
39871W        W71087   2.815   9.973   9.038 -0.0403 -0.1622 -0.0938
39872W        W71088  13.109   7.094   2.712  0.1027  0.0671 -0.2210
39873W        W71089  25.392  16.856   2.849 -0.1868 -0.2381  0.4759
39874W        W71090  19.981   6.142   8.597 -0.2482  0.1855  0.3200
39875W        W71091   4.467   7.139   8.340  0.0667  0.5294  0.1135
39876W        W71092  11.790  12.591   2.014 -0.2379 -0.0192 -0.1003
39877W        W71093   9.293  21.974   8.081 -0.0084  0.0312 -0.1473
39878W        W71094  12.513   9.735   2.725  0.2067  0.0570 -0.0222
39879W        W71095   8.677  11.608   8.882  0.1642  0.4230 -0.3951
39880W        W71096  12.133  16.552   9.742 -0.0188 -0.1234 -0.0309
39881W        W71097  13.776   7.848   7.542 -0.0439 -0.1414 -0.0829
39882W        W71098   4.622  22.352   0.956  0.1312  0.0384 -0.0187
39883W        W71099   5.816  21.107   0.656  0.2065 -0.1125 -0.0707
39884W        W71100   3.860  12.961   1.943 -0.0722  0.0794 -0.1539
39885W        W71101  16.760   6.947   8.437  0.0670  0.2310  0.2291
39886W        W71102   7.038  20.142   0.789 -0.0752  0.1706  0.3332
39887W        W71103   6.183  17.039   9.377  0.0960 -0.0389 -0.0091
39888W        W71104  17.911   1.412   9.336 -0.1546 -0.2266  0.2083
39889W        W71105  17.121   2.565  10.219 -0.1237  0.2653  0.0606
39890W        W71106   1.581  23.477   1.202 -0.3206  0.0972 -0.0531
39891W        W71107  24.078  11.496   9.503  0.2178 -0.0207 -0.0177
39892W        W71108  11.953  15.404   2.542 -0.1906 -0.1761 -0.1914
39893W        W71109  26.186   3.713   3.396  0.0173 -0.3928  0.2228
39894W        W71110  22.219  21.220   0.644 -0.1918 -0.2061 -0.0917
39895W        W71111  13.907  11.748   1.337 -0.1250  0.1918 -0.2701
39896W        W71112  16.616   3.655  10.450 -0.1647  0.1613 -0.1340
39897W        W71113   1.843  22.895  10.226 -0.1527 -0.2031 -0.1200
39898W        W71114   6.363   7.714   1.422  0.1233  0.0882  0.0582
39899W        W71115   2.476   7.105   8.630  0.0101 -0.4465  0.0144
39900W        W71116   1.512  20.593   4.151 -0.1895 -0.0236  0.2955
39901W        W71117   7.235  20.082   3.003  0.1559 -0.2578  0.1062
39902W        W71118  12.126  21.838   1.750  0.0792 -0.2526 -0.1848
39903W        W71119   4.425  20.436   8.915 -0.0642  0.0307  0.2058
39904W        W71120  21.564   6.206   9.910  0.2788  0.0364  0.3954
39905W        W71121   1.181  10.968  10.420  0.1876  0.0121  0.1316
39906W        W71122   1.908  18.639   8.975 -0.3075 -0.1030 -0.2446
39907W        W71123  26.664  12.867   9.354  0.2603  0.2678  0.2275
39908W        W71124   3.393  13.156   2.409  0.1814  0.1137 -0.0918
39909W        W71125  25.453   3.837   0.270  0.0064 -0.3166 -0.0054
39910W        W71126   8.577  17.860   3.571 -0.1212 -0.0109  0.1087
39911W        W71127   4.054  12.052  10.073 -0.1021  0.0305 -0.0372
39912W        W71128   1.343  26.224   1.079 -0.1178 -0.1620  0.0599
39913W        W71129  13.258   5.321   9.910 -0.0905 -0.0699  0.0043
39914W        W71130   9.071  26.085   7.745 -0.2401  0.0518  0.1476
39915W        W71131  24.733   2.280  10.016  0.0221  0.2312  0.1004
39916W        W71132   7.859  24.225   8.583 -0.2669 -0.2301  0.0201
39917W        W71133  11.250   9.738   9.691 -0.1449 -0.3456  0.2107
39918W        W71134  13.206  13.642   2.387  0.3863 -0.1685  0.0333
39919W        W71135   1.647  13.015   3.307  0.1742 -0.0812  0.4746
39920W        W71136   0.321  16.312   9.559 -0.0101  0.2165  0.0380
39921W        W71137   9.565  26.447   8.313  0.0920 -0.0809  0.0361
39922W        W71138   6.728  26.559   9.707  0.3057  0.0841  0.0926
39923W        W71139  24.719  21.435   2.197 -0.3183 -0.1353  0.0961
39924W        W71140  26.343   2.690   9.496  0.0833 -0.0977  0.0600
39925W        W71141  14.994  16.293   2.389  0.1361 -0.2939 -0.0121
39926W        W71142  22.076  15.587   9.553  0.0917  0.0268  0.1437
39927W        W71143   5.639  26.172  10.391  0.0373 -0.0405 -0.1370
39928W        W71144   3.929   8.117   3.187 -0.0157 -0.0380  0.2157
39929W        W71145  15.907  11.568   1.667 -0.1098 -0.2575  0.1077
39930W        W71146  13.845   5.348   2.232 -0.0827 -0.0729  0.1348
39931W        W71147   3.651  23.387   0.752  0.0594 -0.1429  0.1707
39932W        W71148  26.118  24.197   1.521 -0.1498 -0.0541  0.0965
39933W        W71149  14.784  27.551   3.348 -0.1041 -0.0628 -0.1196
39934W        W71150  17.067  20.320   8.197  0.2480 -0.0737 -0.0139
39935W        W71151   0.999  13.431  10.398 -0.2210 -0.0936  0.1101
39936W        W71152  12.686  14.398   0.566 -0.0936 -0.0667  0.4260
39937W        W71153   7.807   3.616   2.995  0.3536 -0.0758  0.1220
39938W        W71154  24.294   2.011   3.485  0.0559 -0.2266  0.2020
39939W        W71155   2.976   3.924   0.739 -0.0620  0.0413 -0.0044
39940W        W71156  24.434  22.706   3.573 -0.2825  0.1386 -0.1874
39941W        W71157   8.445   1.998   2.691  0.0613 -0.0023  0.1099
39942W        W71158   9.800   4.797   1.369 -0.0936 -0.0695  0.6374
39943W        W71159  26.195  14.069   7.962 -0.1057  0.1152 -0.2154
39944W        W71160  22.062  16.657   9.849  0.0806  0.0217  0.1024
39945W        W71161  24.084   2.473   8.565 -0.3163  0.1597  0.1633
39946W        W71162  23.631  10.290   9.027 -0.0107 -0.3744  0.2706
39947W        W71163  18.716  14.865   9.213 -0.3548  0.1724 -0.0874
39948W        W71164   5.781   9.658   8.884 -0.0530 -0.1455  0.1368
39949W        W71165  12.575   2.747   0.374  0.0185 -0.0606 -0.0586
39950W        W71166  18.896  21.294  10.120  0.0877 -0.1055  0.2242
39951W        W71167   5.116  10.165   0.143  0.1631 -0.1019  0.0178
39952W        W71168   6.414  11.896   9.390 -0.0892  0.1020 -0.1680
39953W        W71169   2.872  20.203   0.875 -0.4089 -0.1857 -0.1126
39954W        W71170   5.328  22.972   2.471  0.1459  0.1247 -0.0268
39955W        W71171  23.530  23.336  10.113 -0.1411  0.0432 -0.0072
39956W        W71172  19.238  21.590   4.028  0.1443 -0.3392 -0.1071
39957W        W71173   2.758  17.597   2.902  0.2315 -0.0405 -0.1548
39958W        W71174  23.380  17.965   2.976  0.2480 -0.3844  0.1323
39959W        W71175  25.688   3.251   2.690 -0.3284  0.1864 -0.1966
39960W        W71176   4.100   5.050   0.258 -0.0340 -0.1359 -0.0008
39961W        W71177   5.191  18.770   8.947  0.0107  0.2856 -0.2713
39962W        W71178   2.769  25.310   8.615  0.0124 -0.0770 -0.0125
39963W        W71179  11.357   1.873   1.561 -0.0586  0.0853 -0.2046
39964W        W71180   4.851   4.561   9.138  0.1567  0.1385  0.2958
39965W        W71181   3.211  19.792   2.676  0.1010  0.0744  0.0399
39966W        W71182  24.136  22.892   2.430  0.0173  0.0595 -0.3898
39967W        W71183  17.064  25.838   9.989 -0.4313 -0.2133 -0.0134
39968W        W71184  25.810  22.234   8.120  0.1007  0.2301 -0.0020
39969W        W71185   7.634   8.888   3.140 -0.0405  0.4493 -0.1813
39970W        W71186  14.883  13.884   8.990  0.0805 -0.2653  0.2334
39971W        W71187   7.946  21.056   3.307 -0.2097  0.1243 -0.3441
39972W        W71188  19.000  24.927   9.566  0.1280 -0.0014  0.2036
39973W        W71189  26.507  15.412  10.539  0.3866  0.1100  0.2328
39974W        W71190  20.590  19.506   9.880  0.1741 -0.1687  0.2191
39975W        W71191  19.542  26.995   1.601 -0.1797  0.0736 -0.0299
39976W        W71192  22.162  20.025   8.023 -0.0480  0.0860 -0.1680
39977W        W71193  20.533   9.028   9.529  0.1589 -0.1666  0.0666
39978W        W71194  22.228  17.815   8.869  0.2162 -0.3134 -0.0404
39979W        W71195  17.845   2.564   0.524  0.1163 -0.0587 -0.1445
39980W        W71196  27.524   0.016   2.038 -0.1212 -0.0228  0.2751
39981W        W71197   9.492  20.631   9.913 -0.0777  0.1071  0.0718
39982W        W71198   0.574   3.851   1.961  0.1163  0.1593 -0.3708
39983W        W71199  16.672  11.141   0.931  0.3264  0.0418 -0.0802
39984W        W71200   2.119   4.244   2.352 -0.2819  0.4367 -0.1815
39985W        W71201   4.901   4.922   2.412  0.0277  0.1249  0.2131
39986W        W71202  16.939  12.551   2.295  0.1291  0.1691  0.2489
39987W        W71203  18.968   8.345   7.189  0.0766  0.3080  0.1718
39988W        W71204   4.318  11.078   9.342  0.2988 -0.0737  0.1136
39989W        W71205   9.210   0.882   9.779  0.0145 -0.0536 -0.0250
39990W        W71206  27.426  15.809   7.263  0.2971 -0.2301 -0.0126
39991W        W71207  22.696  23.939   0.105  0.0702  0.2860  0.2926
39992W        W71208  25.611  11.229   2.313 -0.3880  0.2221 -0.0703
39993W        W71209  12.527  26.997   9.491 -0.0183 -0.1662 -0.0360
39994W        W71210  15.348   5.166   1.041  0.1425 -0.3036  0.3398
39995W        W71211  20.443   7.675   8.067  0.0145 -0.1539 -0.2142
39996W        W71212  13.322   8.281   8.245  0.1798 -0.0936  0.3314
39997W        W71213   0.684  21.998   0.585 -0.0109 -0.1073  0.2811
39998W        W71214  27.163   5.475   2.282  0.1547 -0.0147  0.1715
39999W        W71215  18.783  18.975   3.017 -0.0139 -0.2307  0.0804
40000W        W71216  11.538  22.188   1.262 -0.2303  0.2825 -0.3266
40001W        W71217   5.639   1.840   2.244 -0.2175  0.0385  0.0190
40002W        W71218  16.930   2.925   8.495  0.0336 -0.3369  0.3055
40003W        W71219  20.885  15.972   9.761 -0.1704  0.0843  0.1436
40004W        W71220  11.630  17.539   9.883  0.1380 -0.0965  0.3186
40005W        W71221  27.080   8.588   1.112  0.1717  0.1239 -0.3500
40006W        W71222   6.447   4.174   1.859  0.2065  0.1826 -0.1323
40007W        W71223  16.376   4.804   8.786 -0.1472 -0.0611 -0.0132
40008W        W71224  22.310  25.148   2.787 -0.0031  0.1686 -0.1872
40009W        W71225   4.590  19.318   3.102  0.0579  0.0682 -0.1306
40010W        W71226   1.533   1.709   9.428 -0.0469  0.0486  0.1833
40011W        W71227  20.401   6.298   1.068 -0.0703 -0.3016 -0.3078
40012W        W71228   2.872   0.088   8.716  0.1517  0.1155 -0.1091
40013W        W71229  19.870   8.126  10.204 -0.1700  0.1941 -0.1452
40014W        W71230   4.421   8.815  10.523  0.1587  0.0112 -0.3990
40015W        W71231   3.594  21.463   9.008 -0.0061 -0.1694  0.0733
40016W        W71232   8.345   3.791   7.666  0.1613  0.1100  0.1262
40017W        W71233   5.194  20.821   0.725 -0.2148 -0.0811  0.1607
40018W        W71234   7.635  18.193  10.213 -0.0076 -0.1311  0.1331
40019W        W71235  22.452  15.443   2.768 -0.1411  0.0968 -0.1467
40020W        W71236  24.126   4.573   7.711  0.4438  0.1887 -0.2555
40021W        W71237   5.959  15.635   2.844  0.1022  0.1983  0.2523
40022W        W71238   1.334   5.341   9.855  0.0978  0.0950  0.0068
40023W        W71239  18.307   2.428   8.466 -0.2756 -0.0548 -0.0622
40024W        W71240   6.383  12.608   1.017  0.0631 -0.0861  0.0735
40025W        W71241  16.624   3.371   0.804  0.0408 -0.2204 -0.1911
40026W        W71242  16.831  15.241   0.583 -0.1412 -0.1458  0.1721
40027W        W71243  12.587   5.607   1.752 -0.1190  0.4241  0.2748
40028W        W71244  25.604  16.176   9.577  0.3321 -0.1914  0.2253
40029W        W71245  23.493   6.437   3.726 -0.2535  0.0978 -0.1329
40030W        W71246  15.206   3.748   9.599  0.2627  0.0137  0.1473
40031W        W71247  15.307   1.035   0.408  0.0242  0.0257  0.2649
40032W        W71248   3.346  22.967   0.756 -0.1177  0.1951  0.1019
40033W        W71249  23.947  18.850   8.585  0.0540  0.1105 -0.4073
40034W        W71250   8.938  24.951   2.958 -0.3960  0.3628  0.1195
40035W        W71251   4.454  13.605   0.614 -0.1280  0.1081 -0.0765
40036W        W71252  19.922   3.311   1.170 -0.0176  0.1773  0.4622
40037W        W71253   8.533  17.646   1.820 -0.1019 -0.3386  0.3618
40038W        W71254  17.825   4.469   0.964  0.1335  0.2242 -0.1696
40039W        W71255   4.652  13.759   1.897 -0.1770  0.1079 -0.1163
40040W        W71256   5.472  12.900   8.134 -0.1015  0.2434 -0.3220
40041W        W71257  11.311  12.647   2.712  0.1962  0.2587  0.1229
40042W        W71258   8.125  13.303   7.597  0.1040  0.1918  0.0166
40043W        W71259  16.358   3.053   7.275 -0.4001  0.2360 -0.0879
40044W        W71260  25.857  10.989   1.732  0.1752  0.2133  0.1028
40045W        W71261  20.068  24.482   0.015 -0.2078 -0.0119  0.0789
40046W        W71262   7.214  19.168   2.524 -0.1653 -0.1463  0.0591
40047W        W71263  11.240   9.258   7.716  0.1551 -0.0145 -0.1456
40048W        W71264   0.076  20.174   0.092 -0.3104 -0.3810 -0.2110
40049W        W71265  21.515  20.106   9.677  0.0672 -0.0156  0.3172
40050W        W71266  13.315  23.371   7.566  0.1893  0.0748 -0.2783
40051W        W71267  10.527   2.175  10.086 -0.0468 -0.1356  0.1792
40052W        W71268  25.728  14.750   7.587  0.0496 -0.0588 -0.3004
40053W        W71269  14.402   4.419   3.130 -0.0148 -0.4277 -0.0299
40054W        W71270  12.028  12.191   2.235 -0.1296  0.1281 -0.1974
40055W        W71271   9.711  10.686   7.210 -0.0132  0.2260 -0.1389
40056W        W71272  24.312  12.952   8.900  0.0219  0.0535 -0.1230
40057W        W71273   3.886  15.856   2.604 -0.2599  0.2275 -0.1841
40058W        W71274   2.917  11.882   8.200  0.2227  0.1948  0.0617
40059W        W71275  24.706   7.594   9.361 -0.1925  0.1660  0.1219
40060W        W71276  24.179  10.970   9.076 -0.1289  0.0096 -0.1812
40061W        W71277  23.055  18.460  10.441 -0.1938  0.3489 -0.2531
40062W        W71278   0.622  16.381   8.675  0.0769  0.0088  0.0882
40063W        W71279  10.419  21.483   8.123  0.1104 -0.0067  0.1535
40064W        W71280   0.769  11.820   1.424 -0.1607  0.0165  0.1969
40065W        W71281   2.261   4.172   3.681  0.1029 -0.0647 -0.5904
40066W        W71282   9.767  21.055  10.335 -0.1653 -0.1145 -0.1268
40067W        W71283   5.499  16.933   1.500  0.1215 -0.3226 -0.3843
40068W        W71284  15.873  20.499   0.270 -0.1284  0.3744  0.1744
40069W        W71285  15.296   7.552   7.457 -0.2142 -0.1283 -0.0759
40070W        W71286  11.051  24.758   2.954 -0.0559  0.1439  0.0005
40071W        W71287  24.013  15.196   9.304 -0.0280  0.2049 -0.0805
40072W        W71288   9.035  18.815  10.448 -0.0083  0.0291 -0.0303
40073W        W71289  27.030  22.299   3.117 -0.1527  0.2765  0.0007
40074W        W71290  22.138  20.674   8.797 -0.1289  0.0221 -0.2007
40075W        W71291  15.526  17.466   8.088 -0.2056 -0.1572  0.0608
40076W        W71292   8.456   0.891  10.527  0.1171  0.0225  0.0093
40077W        W71293   4.523  13.697   8.355  0.1489  0.1329  0.0202
40078W        W71294  24.915   1.118   8.862  0.0285 -0.0758  0.3160
40079W        W71295   7.310   4.519   9.094 -0.0401  0.0476  0.1612
40080W        W71296   5.354  12.941   2.786  0.2222  0.1415 -0.0189
40081W        W71297  23.908   6.215   0.911 -0.0879  0.1254  0.0087
40082W        W71298  20.345  14.755   0.087  0.0442  0.0859  0.1554
40083W        W71299  16.049   6.410   8.395  0.1236  0.1285 -0.1635
40084W        W71300  14.830   2.078   3.374 -0.0974 -0.0572  0.0382
40085W        W71301   3.782  24.589   0.295 -0.1401 -0.1783 -0.0081
40086W        W71302   4.041  13.284   8.432 -0.1416  0.1024  0.2071
40087W        W71303  14.418   5.018   8.534  0.1858 -0.1544 -0.1138
40088W        W71304   6.102  19.495  10.261  0.2515  0.0846 -0.1556
40089W        W71305   1.457  18.670   4.040  0.0729 -0.1438 -0.2584
40090W        W71306  16.605  23.610   2.623  0.0072 -0.1146 -0.0592
40091W        W71307  13.384  19.659   1.847 -0.0282 -0.0205  0.3964
40092W        W71308   6.022  23.689   8.741  0.1302 -0.2344  0.0550
40093W        W71309  19.649   2.587   7.860  0.1392 -0.3249  0.2443
40094W        W71310   0.154  16.407   0.063 -0.0503  0.0015  0.1049
40095W        W71311  10.497  15.922   0.711 -0.0310 -0.2215  0.0886
40096W        W71312   1.168  16.930   7.220  0.3200 -0.1731 -0.2417
40097W        W71313  17.271   2.830   0.694 -0.2563  0.0026 -0.1826
40098W        W71314  16.453  24.644   9.168 -0.0047  0.0858 -0.1930
40099W        W71315   1.469   1.221   2.081 -0.0268  0.0936  0.0320
40100W        W71316  22.242   6.961   9.853  0.0768 -0.2737 -0.2477
40101W        W71317  11.773  14.114   1.089  0.0694  0.0111 -0.2032
40102W        W71318   2.210  21.658   0.499 -0.0357 -0.1493  0.2496
40103W        W71319  19.765  13.540   2.898  0.2938 -0.0381 -0.2789
40104W        W71320  14.718   5.047   3.705 -0.1367 -0.2994 -0.3812
40105W        W71321   3.552  25.069   3.171  0.0573 -0.3263 -0.0082
40106W        W71322  19.668  16.828   8.931  0.0399  0.0368 -0.0032
40107W        W71323  22.391  16.163   0.893  0.0072  0.2155  0.1836
40108W        W71324  19.940   8.774   2.481  0.0064 -0.4045  0.1108
40109W        W71325  22.897   3.794   8.121 -0.0030  0.4091  0.1266
40110W        W71326   1.620  19.835   7.936  0.0213  0.0412  0.0784
40111W        W71327  23.382  20.736   8.484  0.0637  0.3704  0.3397
40112W        W71328   4.696  10.571   8.038  0.5059  0.3112 -0.0662
40113W        W71329  14.654  21.982   1.101  0.0085  0.0891 -0.1633
40114W        W71330  12.425   5.129  10.456  0.0653  0.1137  0.0366
40115W        W71331  10.896   9.574   0.596 -0.0242 -0.3804 -0.1363
40116W        W71332  19.989  11.188   0.645  0.2758  0.2318  0.0446
40117W        W71333   3.385   6.790  10.502 -0.1672 -0.1510 -0.3340
40118W        W71334   0.698  13.797   0.823  0.2226 -0.4341  0.0479
40119W        W71335  20.293   4.892   8.219 -0.0046  0.1039  0.1312
40120W        W71336  14.344   9.656   3.272 -0.0199 -0.0649  0.2569
40121W        W71337  13.590   5.827   3.426 -0.3201  0.0635  0.5311
40122W        W71338  17.717  18.152   0.281 -0.2045  0.2797  0.1586
40123W        W71339   7.678   6.601   9.015  0.0440 -0.1988  0.1941
40124W        W71340  25.688  20.104   0.193  0.1418 -0.3285 -0.1049
40125W        W71341   1.222  19.131   9.589  0.0056  0.0511  0.0803
40126W        W71342  11.766  12.565   7.925  0.3469 -0.0063  0.0801
40127W        W71343  14.462  26.993   9.098  0.1590 -0.1683 -0.0753
40128W        W71344  27.547   3.149   0.443  0.3027 -0.0925 -0.1166
40129W        W71345   3.932   8.229   1.633 -0.1235 -0.1337 -0.0411
40130W        W71346  11.724   2.336   7.658 -0.0677 -0.3031 -0.0205
40131W        W71347   9.611  25.647   9.254  0.1664 -0.1603  0.2631
40132W        W71348  18.930   7.350   1.210 -0.0319  0.1682 -0.2514
40133W        W71349  23.976   5.659   2.230  0.3439  0.0373  0.1245
40134W        W71350  13.843   3.089   2.581  0.1360 -0.0346 -0.0020
40135W        W71351   2.320  17.489   8.995  0.0077  0.2273  0.0777
40136W        W71352  15.289   0.168   1.208  0.3450 -0.0910 -0.0482
40137W        W71353  16.998  14.218   7.843 -0.0810  0.2548  0.2813
40138W        W71354  25.784   6.528   1.002  0.1381  0.1078 -0.2183
40139W        W71355  19.990   0.063   0.213 -0.2975  0.1053  0.0236
40140W        W71356  11.910  22.938   3.355 -0.0755 -0.1696  0.1527
40141W        W71357   2.543  23.539   1.595  0.0193 -0.0815 -0.0247
40142W        W71358  12.615  17.572   1.825 -0.0882  0.1099  0.1087
40143W        W71359   7.661   6.728   9.872 -0.2900  0.0539  0.0745
40144W        W71360  19.968   6.943   0.562 -0.1854  0.4438 -0.2254
40145W        W71361  17.742  20.024   2.388  0.1847  0.0197  0.0804
40146W        W71362  27.104   4.256   8.162 -0.0046  0.0288  0.0373
40147W        W71363   0.784  22.671   1.945  0.0452  0.0278  0.2175
40148W        W71364   6.705   6.998   2.014 -0.1668  0.2834 -0.0127
40149W        W71365  19.232   1.924   0.625 -0.1376 -0.0715  0.1124
40150W        W71366  13.935  14.057   0.802  0.1768  0.2889  0.0211
40151W        W71367   5.150  11.676   2.679  0.1277  0.1021  0.4368
40152W        W71368   5.926  27.569   7.068 -0.2292  0.0489  0.4173
40153W        W71369  22.163  13.557   1.733  0.2580 -0.1366  0.0148
40154W        W71370  19.796   4.924   8.144 -0.1812 -0.2488  0.2732
40155W        W71371   0.713  23.988   7.953 -0.0054  0.3683  0.0263
40156W        W71372   6.062  17.666   1.857  0.1333 -0.0256 -0.1717
40157W        W71373  18.812  15.765   9.460  0.0899  0.0597 -0.0977
40158W        W71374  22.414  18.204   7.114 -0.2331  0.1088 -0.0904
40159W        W71375   8.389  11.696   0.721 -0.0621 -0.0892 -0.1535
40160W        W71376  25.245  16.539   7.973  0.1009  0.1374 -0.1995
40161W        W71377  24.822  13.854   8.011 -0.0885 -0.0341  0.3739
40162W        W71378  19.223  18.168   8.092  0.0662 -0.0664  0.0537
40163W        W71379  17.467   9.365   2.691  0.0282 -0.0132 -0.2637
40164W        W71380  11.125  20.924   8.848  0.1589  0.1522  0.1096
40165W        W71381   3.835  19.808   9.533  0.0372 -0.2411 -0.2903
40166W        W71382  10.511  10.912   0.788 -0.1334 -0.0285 -0.0125
40167W        W71383  20.381  12.024   8.761  0.1655  0.0809 -0.2159
40168W        W71384  22.433   9.803   2.408  0.0729  0.4341 -0.0478
40169W        W71385  22.079   2.590   1.504  0.0451  0.2017 -0.0772
40170W        W71386  18.050  16.449   1.455  0.0067  0.2847 -0.1870
40171W        W71387  22.504  15.345   7.422  0.0895 -0.0761 -0.1107
40172W        W71388  26.929  20.339   2.763 -0.1699  0.0846 -0.2489
40173W        W71389  17.698  17.667   1.658  0.3403 -0.0803  0.1504
40174W        W71390  14.084  11.387   9.106  0.0362 -0.0441 -0.0423
40175W        W71391  11.959   8.650   9.148 -0.1652  0.2154  0.1389
40176W        W71392  20.153   7.541   8.458 -0.1510 -0.0818 -0.0887
40177W        W71393  26.836   8.575   0.057  0.2611  0.1349  0.0042
40178W        W71394  21.314  13.459   2.865 -0.1747 -0.2160  0.0970
40179W        W71395   0.619   2.352  10.327 -0.2073 -0.0953 -0.0700
40180W        W71396   9.158  16.948   8.291 -0.0882 -0.0916 -0.0676
40181W        W71397  10.666  19.208   0.079 -0.1093  0.1486 -0.1691
40182W        W71398  19.936  11.768   0.701  0.1770  0.0017 -0.1704
40183W        W71399  26.809   4.071   1.669 -0.0936  0.4213  0.0468
40184W        W71400  24.807   7.197   0.832  0.0918 -0.1111  0.2810
40185W        W71401  26.474  21.503   0.550  0.0240  0.2953  0.1204
40186W        W71402   0.007  15.527   0.100  0.2248 -0.0626  0.2600
40187W        W71403  21.572  21.146   0.152  0.0697 -0.0119 -0.3871
40188W        W71404  14.699  13.897   9.927 -0.3988 -0.1627  0.0358
40189W        W71405  22.901  16.391   0.820  0.0610 -0.0230  0.3320
40190W        W71406  18.721  17.431  10.269  0.2332  0.0123 -0.0377
40191W        W71407  23.725  12.676   1.064  0.0558  0.2806 -0.2467
40192W        W71408  24.711  11.665  10.154  0.0684 -0.0150 -0.0345
40193W        W71409   4.578  26.172   8.363 -0.1155  0.2649 -0.1738
40194W        W71410   3.204  25.976   2.662 -0.2446  0.0822  0.4611
40195W        W71411   2.299   2.866   0.053 -0.0452  0.1079 -0.1567
40196W        W71412  13.981   6.464   0.413 -0.0945  0.2286  0.0511
40197W        W71413  20.057  10.735   0.512  0.0480 -0.4108 -0.0225
40198W        W71414  25.046  12.602   1.646  0.0499  0.1434  0.1357
40199W        W71415  16.099   5.716   7.711 -0.0529  0.2476 -0.3529
40200W        W71416   2.024  13.193   0.245  0.2056 -0.0801  0.2082
40201W        W71417  13.520  12.126   1.514  0.1859 -0.0456  0.2528
40202W        W71418  25.650   0.375   0.045  0.1761 -0.0372 -0.0931
40203W        W71419  20.380  22.071   3.271  0.1191 -0.4092  0.0734
40204W        W71420  24.769  16.019   9.210  0.1318 -0.0583  0.2091
40205W        W71421  22.178  13.194   9.276  0.1706 -0.0629  0.1745
40206W        W71422   8.406   2.375   7.760 -0.1430  0.0151 -0.1914
40207W        W71423  21.828  17.104  10.149  0.1046 -0.0240  0.1077
40208W        W71424   3.268  12.558  10.493  0.1666 -0.1479  0.0140
40209W        W71425  11.585  25.012   8.719  0.1149 -0.0994  0.0716
40210W        W71426  23.178   5.591   8.132  0.0063  0.1324 -0.1578
40211W        W71427   6.155  24.882   8.669 -0.0778 -0.1813 -0.2562
40212W        W71428  18.109   4.126  10.294  0.1347  0.0735  0.0688
40213W        W71429   9.796  19.393   0.428 -0.1123  0.2544  0.0398
40214W        W71430   8.421  11.571   2.301 -0.0930  0.0689 -0.1590
40215W        W71431  20.284   9.208   1.505  0.2337 -0.0045 -0.1385
40216W        W71432   9.878   8.700   9.409 -0.1504  0.3086  0.0291
40217W        W71433  26.157  18.216   8.801 -0.1497 -0.2767  0.0212
40218W        W71434  19.526  12.591   1.300  0.2143 -0.1443 -0.2269
40219W        W71435   5.389  24.301   0.960 -0.4636 -0.0728 -0.0403
40220W        W71436  24.832   2.661   9.536  0.0554  0.1474  0.1372
40221W        W71437  11.618  20.598   1.265  0.1341 -0.1196 -0.3841
40222W        W71438   1.540  11.463   8.007 -0.1649 -0.0521 -0.1917
40223W        W71439  16.112  21.028   7.928  0.1076 -0.2617  0.0183
40224W        W71440  19.779  24.341   7.680  0.2862 -0.0496  0.0087
40225W        W71441  13.611  16.030   3.007 -0.2132 -0.1348  0.1378
40226W        W71442   3.529   4.969   1.405  0.2260  0.1377  0.0802
40227W        W71443   0.625  13.280   8.923  0.1054 -0.0711  0.0194
40228W        W71444  19.372  26.445   2.332  0.1004  0.0495 -0.2005
40229W        W71445  21.379   6.317  10.414 -0.5258  0.2147  0.0081
40230W        W71446   3.079  16.240   0.805  0.1644 -0.2165  0.1947
40231W        W71447   3.626  26.042   3.081 -0.0346 -0.1344  0.0212
40232W        W71448   9.606  20.796   8.174 -0.1729  0.1304 -0.3149
40233W        W71449   0.805  14.632   1.775  0.3972 -0.4614 -0.0874
40234W        W71450   0.129  22.131   0.976  0.2353  0.1924 -0.0851
40235W        W71451   4.719  13.148   8.770 -0.2541 -0.2178 -0.3705
40236W        W71452   9.767  13.233   8.320 -0.1019  0.1547 -0.0579
40237W        W71453  12.712  25.568   9.305  0.0597  0.2682  0.0975
40238W        W71454   4.918  21.209  10.069 -0.2142  0.1227  0.1858
40239W        W71455   0.515   6.792   0.250  0.0626 -0.2195  0.0813
40240W        W71456   4.876  23.664  10.514 -0.1544  0.3860  0.1506
40241W        W71457   0.468  12.899   0.925 -0.0794  0.0770 -0.2374
40242W        W71458  25.201  18.378   8.560  0.2734 -0.1366 -0.2020
40243W        W71459   7.692  15.118   8.571  0.1767  0.0101  0.0461
40244W        W71460   8.753   6.811   2.243 -0.1664  0.0807  0.0131
40245W        W71461  10.795   4.266   8.532  0.3341 -0.1903 -0.1495
40246W        W71462   2.717   5.234   0.032  0.1504 -0.0560  0.4421
40247W        W71463  20.829  22.318   3.084 -0.0221  0.0789  0.1135
40248W        W71464  19.579  24.475  10.451  0.0046 -0.1089 -0.1789
40249W        W71465  15.690  19.049   2.319 -0.0829  0.0099 -0.0876
40250W        W71466   6.546   8.314  10.484 -0.1637 -0.2794 -0.1098
40251W        W71467  13.493   1.909   9.454 -0.2381  0.1349  0.1628
40252W        W71468   2.686  26.639   9.581 -0.1668 -0.1348  0.0093
40253W        W71469   1.709   9.830   0.036  0.1023  0.4022  0.3874
40254W        W71470  13.323  16.607   2.457 -0.0232  0.0541 -0.0297
40255W        W71471  22.935   8.869   0.683  0.0794 -0.2102 -0.1988
40256W        W71472  22.494  17.184  10.525  0.2419 -0.0897 -0.1430
40257W        W71473   1.806  14.055   1.536  0.0226  0.0181  0.0485
40258W        W71474   1.275  24.710   1.089  0.1271 -0.0407  0.1939
40259W        W71475   4.763  24.865   8.379  0.5190 -0.1252 -0.4186
40260W        W71476  18.645  16.992   1.768  0.1124 -0.0220 -0.0922
40261W        W71477  13.225  25.199   2.650 -0.0388 -0.0072 -0.3434
40262W        W71478   4.051  22.197   1.485  0.0574  0.0040  0.1054
40263W        W71479   0.561  18.268   1.869  0.0379  0.4268 -0.1593
40264W        W71480  24.128   4.116   3.283  0.0787  0.0068  0.3134
40265W        W71481   7.149  22.983   0.423 -0.2726 -0.1217  0.3309
40266W        W71482  16.036  10.142   0.050 -0.1809  0.3299  0.3845
40267W        W71483   8.956  10.342   0.320 -0.2034 -0.1811 -0.1362
40268W        W71484  11.684   5.999   2.018 -0.3161 -0.0305 -0.1000
40269W        W71485  19.606  10.175   1.478  0.0250 -0.0336  0.1229
40270W        W71486  26.973  16.090   7.391  0.0374 -0.0228  0.2600
40271W        W71487  23.972   0.245   1.675  0.0242 -0.0061 -0.3628
40272W        W71488   7.067  26.587   8.807 -0.0344  0.1714 -0.1044
40273W        W71489  13.238  17.341   1.275  0.0847 -0.1143  0.1196
40274W        W71490   7.580   2.515   2.908  0.0453  0.4120  0.2772
40275W        W71491   9.675   9.576   8.753  0.1632  0.0326  0.0421
40276W        W71492  20.068   4.881   1.243  0.0729 -0.2228  0.0049
40277W        W71493  18.376  11.055   1.300  0.2092 -0.2728  0.2687
40278W        W71494   8.988   8.158   3.315 -0.1344 -0.1622 -0.1230
40279W        W71495  14.613  16.978   8.201 -0.0686 -0.0447 -0.1764
40280W        W71496   7.144  19.646   0.635 -0.4258  0.0656  0.0463
40281W        W71497  12.840  26.964   8.184  0.4096  0.1914 -0.0486
40282W        W71498   7.953   6.278   8.612 -0.2669 -0.2768  0.0973
40283W        W71499  13.815  24.238   8.314  0.1530 -0.1376 -0.1605
40284W        W71500  14.650   5.446   8.001 -0.3253 -0.1241 -0.4653
40285W        W71501  27.001  22.319   7.323 -0.3626  0.1832  0.1362
40286W        W71502  21.950  20.602   9.810 -0.5101 -0.0956  0.3045
40287W        W71503  17.768  21.296   3.416 -0.0658  0.1972  0.3548
40288W        W71504  18.535  22.497  10.468  0.0878 -0.1003  0.1795
40289W        W71505  19.170  25.807   8.544 -0.0831 -0.1898  0.3699
40290W        W71506  26.386  26.827  10.090  0.0465 -0.1438  0.2859
40291W        W71507  18.900   1.067   0.105  0.5362  0.2909 -0.1777
40292W        W71508  21.726  16.049   0.892 -0.1289 -0.2182 -0.1571
40293W        W71509  19.052  12.272   2.689  0.1363  0.0326 -0.0786
40294W        W71510   9.309  18.999   0.738  0.2662  0.0398  0.0217
40295W        W71511   2.144   7.242   8.117 -0.1400 -0.1742  0.3642
40296W        W71512  20.589  12.295   7.905  0.2230 -0.0620 -0.0543
40297W        W71513  22.410  11.660   2.774  0.1437  0.2056  0.2934
40298W        W71514  21.003  26.204   2.272  0.0848 -0.1608 -0.1277
40299W        W71515  26.740   5.196   2.303 -0.0580 -0.2250 -0.3345
40300W        W71516  13.910  25.279   2.474  0.0736  0.1300  0.1486
40301W        W71517  10.060   0.034   9.743  0.2367 -0.0215 -0.3367
40302W        W71518  16.556   1.353   9.358  0.1502  0.2074  0.1195
40303W        W71519  23.029  25.889   8.104  0.0535  0.0490 -0.1392
40304W        W71520  12.650  10.210   8.347 -0.0178  0.2639  0.1036
40305W        W71521  25.614  23.580   8.856  0.0873 -0.0771 -0.0004
40306W        W71522  25.219  14.175   0.317  0.0521  0.2184 -0.1712
40307W        W71523   4.824   4.318   0.450 -0.0579  0.2227  0.1384
40308W        W71524   4.605  15.597   1.532  0.2155  0.1159 -0.0605
40309W        W71525  20.626   7.245   9.139  0.0343 -0.0582 -0.1657
40310W        W71526  13.440  23.887   8.146 -0.0235  0.2001 -0.2158
40311W        W71527   5.174  11.816   1.993 -0.0322 -0.0022 -0.0153
40312W        W71528   3.033  12.413   8.197 -0.1655 -0.0656 -0.1499
40313W        W71529   7.525   0.767   8.332  0.0320  0.0577 -0.0322
40314W        W71530   7.075  11.945   8.698 -0.1559  0.1167 -0.3643
40315W        W71531   5.266   4.839   1.955 -0.0090  0.1669 -0.0732
40316W        W71532  19.049   4.974  10.285  0.0953  0.1404  0.1012
40317W        W71533   7.365   6.541   1.783 -0.1013 -0.2716  0.1786
40318W        W71534  20.206  18.599   1.077 -0.0108  0.1702  0.2390
40319W        W71535   7.461  18.437   2.274  0.1629  0.0185 -0.0179
40320W        W71536   4.850  20.701  10.285 -0.1740  0.2097  0.1121
40321W        W71537  15.796   5.397   8.150 -0.2188 -0.0583  0.0564
40322W        W71538   8.590  26.029   8.349 -0.0104  0.0085  0.1688
40323W        W71539  27.518  27.090   9.023 -0.2243 -0.0700 -0.0965
40324W        W71540  26.880  10.308   1.195 -0.1188  0.1388 -0.2126
40325W        W71541  22.741   5.548   2.902  0.1055  0.2417 -0.2219
40326W        W71542  11.616  13.449   7.457 -0.1274  0.2522 -0.3648
40327W        W71543  17.837  22.090  10.014 -0.0880  0.2945 -0.2082
40328W        W71544  18.638  15.539   1.749 -0.1044 -0.0111  0.2472
40329W        W71545   1.313  20.069   1.481 -0.1532 -0.1737 -0.1519
40330W        W71546  25.986  20.382  10.377  0.1721 -0.1104  0.0481
40331W        W71547  25.426  20.237  10.161  0.0805  0.0985 -0.1763
40332W        W71548  10.145   6.968   8.478 -0.4654  0.0826  0.2072
40333W        W71549   2.262   7.095   1.676 -0.2390  0.0248 -0.0874
40334W        W71550  12.363   9.743   4.168 -0.0920  0.1858  0.0932
40335W        W71551  24.134  24.085   0.012 -0.2553 -0.2284 -0.4986
40336W        W71552  18.636  13.528   1.461  0.0815 -0.0682 -0.1572
40337W        W71553   0.859  16.016   2.844  0.0855  0.0409  0.0827
40338W        W71554   4.357  11.029   2.845  0.2765  0.0607 -0.3920
40339W        W71555  21.751  19.241   1.351 -0.0829 -0.0554  0.0110
40340W        W71556   4.128  15.022   2.570  0.4116 -0.2276  0.1382
40341W        W71557   8.432  17.197   2.121 -0.0306 -0.0289  0.0795
40342W        W71558  18.476  10.711   1.971 -0.1903 -0.0293 -0.0146
40343W        W71559  24.572  24.189   8.089 -0.0085  0.2500 -0.0308
40344W        W71560  17.898   2.932   1.985  0.2758  0.5954 -0.2583
40345W        W71561  18.657   6.114   2.855 -0.2093  0.1834 -0.2219
40346W        W71562  27.573   7.126   1.179  0.0857 -0.1126 -0.0470
40347W        W71563   8.710  19.411  10.195 -0.0601 -0.0308  0.1875
40348W        W71564  18.833   6.881   0.823  0.2056 -0.3234  0.1450
40349W        W71565  26.781  27.370   9.088 -0.0095  0.3475 -0.2914
40350W        W71566  26.275  25.863   1.211 -0.1594 -0.0243 -0.1113
40351W        W71567  11.589  26.833   2.072 -0.3857 -0.3445  0.1459
40352W        W71568  25.531  26.138   1.128  0.1084  0.0257  0.0125
40353W        W71569  19.905  10.427   9.091  0.0189 -0.3811  0.0900
40354W        W71570  15.308  22.226   9.335 -0.2011 -0.2995  0.0616
40355W        W71571   9.414  17.469   2.155  0.0411 -0.0227  0.4650
40356W        W71572  14.263   7.515   2.574  0.0259 -0.1258 -0.1723
40357W        W71573  26.633  13.422   8.085  0.2367  0.0136  0.0858
40358W        W71574   9.795  12.014   8.820 -0.0866 -0.1446  0.3092
40359W        W71575   9.600   6.016   7.510  0.3286 -0.2879  0.1150
40360W        W71576   5.498   2.864   1.442  0.1480  0.0366 -0.0791
40361W        W71577   7.998  20.994   9.519 -0.2292  0.2190 -0.1257
40362W        W71578   3.607  21.622   7.811  0.0668 -0.0820  0.2518
40363W        W71579  25.903  14.372   9.618 -0.0068 -0.2290  0.3149
40364W        W71580  23.115  21.971   2.580 -0.1829 -0.0583 -0.0659
40365W        W71581  24.322   9.034   1.473  0.0602 -0.2055 -0.1183
40366W        W71582  21.147   0.997   0.957  0.2267  0.1009  0.1787
40367W        W71583  10.696  11.912   0.458  0.1938  0.1214 -0.2680
40368W        W71584  11.963  23.781   7.453  0.0005 -0.4443  0.1672
40369W        W71585  23.145  18.747   9.616 -0.2168 -0.2692 -0.2032
40370W        W71586  21.919  23.110   8.204  0.0768 -0.2025 -0.0045
40371W        W71587  11.400   0.508   1.737  0.1861  0.0009  0.2724
40372W        W71588  24.845  26.149   1.714 -0.0635 -0.2225 -0.1694
40373W        W71589  12.725   1.368   3.696 -0.0895 -0.1861  0.0596
40374W        W71590   9.617  26.758   0.622  0.0594 -0.7782 -0.1443
40375W        W71591  17.284   0.486   3.441  0.1120 -0.3001  0.1062
40376W        W71592   8.847   9.130   9.083 -0.0692  0.0451  0.3095
40377W        W71593   0.334  12.115   7.746 -0.0116  0.2683  0.4126
40378W        W71594  11.709   5.833   9.355  0.0435 -0.1603 -0.3686
40379W        W71595  17.792  24.050   0.610  0.1833 -0.1414  0.4073
40380W        W71596   6.909  14.374   7.629 -0.1206  0.0677 -0.0117
40381W        W71597  22.644  17.236   7.604 -0.1292 -0.0314 -0.0427
40382W        W71598  12.427  16.625   0.702 -0.0823  0.3003 -0.1580
40383W        W71599   9.668  11.983   1.889 -0.0113  0.3836 -0.0366
40384W        W71600  25.027  22.060   0.531 -0.1223 -0.2257  0.1259
40385W        W71601  19.207  12.198   7.274 -0.2906 -0.0075  0.0777
40386W        W71602  12.112  17.900   3.891  0.3658  0.2335 -0.1203
40387W        W71603  16.070  25.773   0.972  0.1055  0.0810 -0.1020
40388W        W71604  22.335  15.921   1.331  0.0238  0.2302 -0.1166
40389W        W71605   7.835  23.736   0.059  0.1781  0.0131  0.2386
40390W        W71606  17.709   9.760   7.474  0.1108 -0.0092  0.1738
40391W        W71607   0.794  18.542   2.942 -0.3850  0.0325 -0.2124
40392W        W71608  11.885   2.353  10.103 -0.4230 -0.1170 -0.1101
40393W        W71609   1.185  11.816   8.771 -0.0205 -0.2871  0.0696
40394W        W71610   1.486   3.212   8.247 -0.2218 -0.1165  0.2190
40395W        W71611   9.771   3.799   2.853  0.0574  0.0213 -0.0032
40396W        W71612  24.086   0.409   1.247  0.2238  0.2722 -0.1697
40397W        W71613  16.536  27.467   1.460 -0.0092 -0.1163 -0.1091
40398W        W71614   1.779   2.148   2.371  0.2947 -0.1928 -0.1189
40399W        W71615  16.219  21.183   2.179  0.0413  0.2687  0.1672
40400W        W71616  26.507  20.308   0.047 -0.0429 -0.0974  0.1272
40401W        W71617  15.726   7.447   7.730 -0.0050  0.1247  0.1163
40402W        W71618   7.137  24.431   2.890 -0.1578 -0.0374  0.0894
40403W        W71619  18.387   8.249   1.406 -0.1696 -0.1510 -0.2466
40404W        W71620   9.428   8.463   9.464  0.1175  0.1936 -0.0381
40405W        W71621  21.613   2.916   1.431  0.0415  0.0674 -0.3024
40406W        W71622   4.070  23.593   9.243  0.0976 -0.1074  0.0762
40407W        W71623   0.391  26.833   8.460 -0.0245 -0.2840  0.0282
40408W        W71624  17.569   4.493   8.845  0.0781  0.1815  0.4331
40409W        W71625  18.099  20.811   2.970 -0.1470 -0.0262  0.1559
40410W        W71626  11.933  17.897   8.324  0.1852  0.0730  0.0985
40411W        W71627  26.904   8.823   9.027  0.2359  0.0520 -0.0484
40412W        W71628  13.545  16.969   8.576 -0.0557 -0.1775 -0.0157
40413W        W71629  10.419  13.873   0.867  0.0526 -0.0491 -0.1665
40414W        W71630  15.209  18.153  10.256  0.2425  0.0070  0.0818
40415W        W71631  27.491  15.591   9.262 -0.0033  0.0671 -0.0099
40416W        W71632   7.299  19.183   8.348 -0.0355 -0.3418 -0.1925
40417W        W71633   4.364   4.370   8.924  0.1192  0.0269 -0.0882
40418W        W71634   0.658   9.045   8.220 -0.1245  0.1725  0.6007
40419W        W71635   6.591   2.063   7.944  0.0167  0.0253 -0.1535
40420W        W71636  26.947   0.938   0.783 -0.1393 -0.1270  0.1559
40421W        W71637   4.073   6.581   2.010 -0.0893  0.2161 -0.1316
40422W        W71638  24.164   0.035   9.688  0.1643 -0.1969  0.3527
40423W        W71639  11.696  22.250  10.337  0.0884 -0.4540 -0.3833
40424W        W71640  11.433   8.993   2.453  0.0226  0.0641  0.0856
40425W        W71641   9.539   8.674   3.599  0.0061  0.0786 -0.3277
40426W        W71642   5.239  17.305  10.358 -0.4366  0.0177  0.0903
40427W        W71643  24.212  11.333   1.670 -0.0417  0.0237 -0.1112
40428W        W71644  24.785  14.751  10.383  0.1368 -0.2062 -0.2059
40429W        W71645  24.499   0.541  10.486  0.2395  0.0671 -0.1041
40430W        W71646  10.321  25.601   9.142  0.1308 -0.1015  0.2166
40431W        W71647  16.345  19.733   1.173  0.0267  0.0097 -0.1085
40432W        W71648  14.860  24.739   9.567  0.0934  0.1460  0.2944
40433W        W71649   4.026   7.555   2.431 -0.0584 -0.1441 -0.0216
40434W        W71650   3.520   1.266   8.881  0.0627  0.0959  0.2360
40435W        W71651   2.427   1.773   7.704 -0.1511  0.1732 -0.2704
40436W        W71652   4.068   8.578   9.738 -0.2171  0.0405  0.2023
40437W        W71653  13.516  22.072   2.544  0.0559 -0.2716 -0.3966
40438W        W71654  19.981  21.908   8.414 -0.2275 -0.0815  0.3408
40439W        W71655  22.720   6.509   0.384  0.5163  0.2668  0.1962
40440W        W71656   3.304  23.710   2.217 -0.0361 -0.0703  0.0952
40441W        W71657  11.468   2.820   8.862  0.1397  0.1199  0.0770
40442W        W71658   1.606   6.549   2.443 -0.2670  0.2010 -0.1352
40443W        W71659   7.694  13.561   2.123 -0.1812 -0.1057 -0.1349
40444W        W71660  10.490   7.120   8.948  0.0227 -0.2414 -0.0656
40445W        W71661   5.684  24.867   8.436 -0.0405  0.0636  0.2321
40446W        W71662   3.569  10.896   1.432 -0.2821  0.0827 -0.1527
40447W        W71663  13.047  27.546   8.550  0.0494 -0.1774  0.1839
40448W        W71664  21.319  11.717   8.876  0.0010  0.1461  0.1016
40449W        W71665   4.793  13.375   2.260 -0.1865 -0.2976  0.0456
40450W        W71666   0.187   8.291   8.811  0.1700 -0.1316 -0.1619
40451W        W71667  17.419   6.954   1.513  0.1135 -0.1519 -0.2952
40452W        W71668   1.801  13.010   1.257  0.0609 -0.2205 -0.0041
40453W        W71669  22.183  26.828   8.698  0.0063 -0.1530  0.0832
40454W        W71670  26.570   1.365   8.983  0.1411  0.0500  0.1224
40455W        W71671   4.478  23.399   7.962 -0.3626 -0.1517 -0.2438
40456W        W71672   0.792   3.692   0.676  0.0221 -0.0047  0.1678
40457W        W71673  12.482   1.579   1.352 -0.1444 -0.0323  0.2182
40458W        W71674  14.018  22.994   2.718 -0.1123 -0.0357  0.0942
40459W        W71675  21.452   2.958   3.402 -0.0801  0.1227 -0.2652
40460W        W71676  22.039   1.848  10.156  0.0848  0.2639 -0.1699
40461W        W71677   1.294  15.472   1.472 -0.5441 -0.1909  0.1851
40462W        W71678  23.892  15.458   0.658 -0.0021  0.1964  0.4359
40463W        W71679  27.121  23.822   9.586  0.0855  0.2485 -0.2061
40464W        W71680  15.459  26.674   8.964  0.1313  0.1632  0.1539
40465W        W71681  10.867   6.062   2.705 -0.1245 -0.0704  0.0732
40466W        W71682  13.589   7.821   9.075 -0.2599 -0.0603  0.0027
40467W        W71683   3.327  21.473   8.536 -0.1056  0.0504  0.0796
40468W        W71684  21.587  11.674   2.940  0.2235 -0.3076  0.0319
40469W        W71685  10.539  19.886   8.769 -0.0226 -0.0571  0.1851
40470W        W71686  23.767  20.671   1.364  0.4351  0.0167  0.0960
40471W        W71687  16.778   4.098   0.026  0.4274  0.1148 -0.1787
40472W        W71688  15.400  22.602   9.987 -0.0650 -0.0317  0.2370
40473W        W71689   3.259  22.737  10.071 -0.0665  0.0248  0.2427
40474W        W71690  24.802  18.479   2.422 -0.0889  0.1722  0.3316
40475W        W71691  25.535   2.899   2.995  0.1386 -0.0019  0.0196
40476W        W71692   9.554  18.263   0.705 -0.0534 -0.0398 -0.0385
40477W        W71693   0.962  10.327   8.405  0.0491  0.0777 -0.0299
40478W        W71694   1.860   1.944  10.492  0.1812  0.3089  0.1139
40479W        W71695  16.877  14.130   9.651 -0.2032 -0.1505 -0.1006
40480W        W71696  22.019  13.454   7.916 -0.0414 -0.1116  0.1165
40481W        W71697   5.161  23.410   0.357  0.2424  0.0630  0.0208
40482W        W71698   7.036  20.994   2.539  0.0251 -0.2358  0.0776
40483W        W71699  22.891  22.874  10.271  0.1102  0.1387  0.1793
40484W        W71700  12.499   2.162   2.979 -0.4412  0.0198 -0.1147
40485W        W71701  19.417   5.004   2.629  0.0728  0.0666  0.0323
40486W        W71702  20.420   6.410   8.728  0.0966 -0.0115  0.2503
40487W        W71703  10.275  21.988   7.923  0.2138  0.0483  0.0062
40488W        W71704  27.078  20.437   0.979  0.2271  0.1134 -0.0429
40489W        W71705  26.523   9.439   8.241  0.0692 -0.1179 -0.1865
40490W        W71706  11.345  16.403   9.192 -0.0304 -0.1098  0.2096
40491W        W71707   8.589  10.554   7.274 -0.0489  0.1802 -0.0482
40492W        W71708   0.468  13.630   9.270 -0.2276  0.0586  0.1017
40493W        W71709  15.580  11.692   0.551  0.3971  0.2879  0.0063
40494W        W71710  12.888  26.875   2.736 -0.4005  0.3030 -0.1625
40495W        W71711   2.118   0.149   3.032 -0.1990 -0.1951  0.0110
40496W        W71712   5.840   6.512   7.679  0.0962 -0.1281  0.4366
40497W        W71713  18.380  20.485   2.037  0.1718  0.1406  0.2969
40498W        W71714  23.415   5.275   1.866 -0.0054  0.3411 -0.2472
40499W        W71715   6.119  22.776   8.943 -0.0834  0.2952  0.3751
40500W        W71716   1.965  25.675   9.767  0.0660  0.1439 -0.4441
40501W        W71717  11.819  23.622   8.098 -0.0857 -0.0177  0.0715
40502W        W71718  13.367  25.162   8.854 -0.2068  0.3682 -0.0533
40503W        W71719  20.298  12.430   8.277 -0.1673 -0.0538  0.2826
40504W        W71720  14.774  22.241   7.987 -0.0761 -0.0662 -0.1752
40505W        W71721   7.494  26.888   8.845  0.1713  0.1168 -0.2093
40506W        W71722   3.914  20.255   3.048  0.4143 -0.2575 -0.3263
40507W        W71723  21.573  26.767   0.642  0.2812  0.0684 -0.1362
40508W        W71724  10.249  23.245   9.599 -0.0823 -0.0890 -0.0399
40509W        W71725  23.160  24.243   8.726 -0.0000 -0.0805  0.0286
40510W        W71726  15.536   0.940  10.079 -0.0684  0.1737  0.0665
40511W        W71727  27.106  25.367   3.493 -0.0974  0.1779 -0.2643
40512W        W71728  12.534  11.081   8.677  0.0342  0.2990  0.3872
40513W        W71729  12.093  15.079   0.058  0.1711 -0.1212 -0.5274
40514W        W71730  19.771   5.935   2.171 -0.2547 -0.1504  0.2593
40515W        W71731  22.196  19.960   2.036  0.2183  0.2380 -0.0358
40516W        W71732  13.958   9.711   9.320 -0.2020 -0.0151 -0.2918
40517W        W71733  23.674  21.283   9.760 -0.1017 -0.3216 -0.2495
40518W        W71734  25.574  14.637   8.221  0.2447  0.1406 -0.0840
40519W        W71735  18.897  24.233   1.781 -0.1422 -0.1536  0.2154
40520W        W71736   7.883   5.975   2.145  0.2201  0.2738 -0.0183
40521W        W71737   9.241  25.050   2.107  0.0249  0.2602  0.1855
40522W        W71738  23.386   5.073   8.893 -0.2447  0.3627  0.0553
40523W        W71739  21.390  14.961   8.004 -0.2955 -0.2183 -0.1462
40524W        W71740   3.857  17.011   7.487 -0.0477 -0.3356 -0.2522
40525W        W71741   8.530  24.553   7.794  0.1574 -0.0359 -0.3542
40526W        W71742  21.421   3.730   0.922 -0.0079  0.2100 -0.4204
40527W        W71743  24.365  21.269   1.844 -0.4877  0.0453  0.1683
40528W        W71744  13.157  22.360   9.428 -0.0265  0.1847 -0.2587
40529W        W71745  21.039  12.757   7.726 -0.2100  0.0077 -0.1157
40530W        W71746  16.477  12.689   1.078  0.3474 -0.0774 -0.2082
40531W        W71747  24.386   7.833   0.247  0.3017 -0.1938  0.0193
40532W        W71748   9.116  20.470   3.511  0.1265  0.0278 -0.0829
40533W        W71749  11.304   6.983   9.813 -0.2534 -0.0181  0.0841
40534W        W71750  13.211   7.846   1.553 -0.0580  0.1094 -0.0198
40535W        W71751   8.100  19.184   3.061  0.2249 -0.2653 -0.1247
40536W        W71752   3.763   7.183   2.763  0.1367 -0.1745 -0.2321
40537W        W71753  15.091   4.853   9.782  0.1437 -0.0680  0.1372
40538W        W71754  19.158  19.357   2.697  0.2372  0.1083 -0.1345
40539W        W71755  11.643  12.070   7.185  0.4053  0.1869 -0.3335
40540W        W71756  10.192   3.953   0.933  0.1838 -0.2297  0.0572
40541W        W71757   9.325  26.895   9.397  0.2374  0.1279 -0.1896
40542W        W71758  10.571  20.031   0.122 -0.0699  0.1434 -0.1487
40543W        W71759  12.683  24.389   0.958 -0.1821 -0.4825  0.0599
40544W        W71760  24.938  11.452   2.262 -0.0338  0.0218  0.1836
40545W        W71761  20.352   3.483   9.453  0.0608 -0.0089 -0.0135
40546W        W71762   6.050  14.909   0.312 -0.0083 -0.1212 -0.2408
40547W        W71763   2.594  25.231   2.724  0.2896 -0.4723 -0.2194
40548W        W71764   9.771  19.216   9.883 -0.0558 -0.0788 -0.2119
40549W        W71765  24.030   0.456  10.402  0.2620  0.0352 -0.2931
40550W        W71766  17.013   5.654   9.747 -0.1208  0.0493  0.0577
40551W        W71767  20.380  19.929   0.856  0.0204 -0.3955 -0.3395
40552W        W71768   9.623   6.220   2.456  0.1884  0.2696  0.2971
40553W        W71769  21.166   9.331   9.643  0.0330  0.3131 -0.0488
40554W        W71770  11.086  18.568  10.076  0.0177 -0.0612  0.0070
40555W        W71771   1.892   7.836   0.910 -0.0304  0.0252 -0.1614
40556W        W71772   0.250  14.093   3.678  0.0745  0.1674  0.0890
40557W        W71773  12.564  18.031   8.138  0.1003  0.0268  0.0636
40558W        W71774   2.388  22.825  10.240 -0.1378 -0.1729  0.5498
40559W        W71775   2.064  20.455   3.847  0.4028  0.1925 -0.2675
40560W        W71776   1.017   8.536  10.305  0.1018 -0.0500  0.2373
40561W        W71777  17.276  11.372   7.588 -0.0734  0.2396  0.1665
40562W        W71778   0.140  11.896   2.281  0.0987 -0.1433  0.2622
40563W        W71779  10.126  10.873   7.341  0.5644  0.0729 -0.3426
40564W        W71780   6.063  15.963   7.873 -0.0358 -0.5221 -0.1641
40565W        W71781  23.757  18.978   1.605 -0.1417 -0.1670 -0.0757
40566W        W71782   5.637  25.593   2.213 -0.0209  0.0853 -0.1190
40567W        W71783  21.092  11.469   9.270 -0.1473  0.0145  0.4505
40568W        W71784   9.952   0.326   1.024 -0.0730  0.3504 -0.0330
40569W        W71785   8.404  27.500   9.989 -0.0329 -0.4360 -0.0838
40570W        W71786  10.335   7.483   2.446 -0.0193 -0.0049  0.1608
40571W        W71787  16.701  23.150  10.443  0.2831  0.0474 -0.0416
40572W        W71788  11.437   6.418   0.936 -0.1338  0.1297  0.4673
40573W        W71789  23.961  22.185  10.418 -0.2995  0.1672  0.0526
40574W        W71790   7.727  20.951   2.923 -0.0631  0.2405 -0.0851
40575W        W71791   0.301  18.614   9.644  0.1996  0.0751  0.0193
40576W        W71792  14.889  20.587   2.017  0.0854 -0.1447  0.3027
40577W        W71793  13.926  11.044   1.964  0.1791 -0.1316 -0.4919
40578W        W71794   6.384  19.249   1.489 -0.1679  0.1908 -0.2150
40579W        W71795   2.518  15.281  10.101  0.0644  0.2451 -0.0776
40580W        W71796  13.019  22.882   9.364  0.1181 -0.2562 -0.0631
40581W        W71797   1.272  26.316   2.976  0.2106  0.0977 -0.1371
40582W        W71798   9.798  24.898  10.352  0.2846  0.2189  0.1971
40583W        W71799  26.281  11.028   9.668  0.0591 -0.1169  0.0074
40584W        W71800  17.504   8.307   2.572 -0.1805  0.2853 -0.0835
40585W        W71801  22.043  17.323   9.004 -0.0714 -0.1927 -0.2544
40586W        W71802  14.902  21.182   3.668  0.0853  0.1706 -0.0490
40587W        W71803  20.807   8.068   0.039  0.1321  0.1172 -0.0104
40588W        W71804   4.700  24.533   9.315  0.3016 -0.0918  0.0695
40589W        W71805   4.523   1.493   9.152  0.0261 -0.3146 -0.0852
40590W        W71806  24.135  19.805   0.468 -0.0287 -0.2624  0.2531
40591W        W71807  16.554   0.019   9.676  0.1963 -0.3291  0.4121
40592W        W71808  16.029   3.762   2.460 -0.3192 -0.0694  0.4088
40593W        W71809   0.869  26.691   1.728  0.0152 -0.3198 -0.0327
40594W        W71810  26.037  16.936   2.771 -0.1632 -0.0245 -0.1034
40595W        W71811  22.626  16.324   1.304  0.2095  0.0189 -0.1136
40596W        W71812   1.907  20.564   7.870  0.1398  0.0972 -0.0430
40597W        W71813  12.692  18.284   2.413  0.2466  0.1197 -0.1346
40598W        W71814   7.507  26.040   1.381  0.0274 -0.0102 -0.3089
40599W        W71815  25.335  23.763   8.256  0.0416  0.1236 -0.3113
40600W        W71816   7.236  27.570   0.654 -0.1603 -0.1763 -0.2013
40601W        W71817  13.922   4.980   7.799 -0.1105  0.2976  0.1383
40602W        W71818  19.887   7.441   0.189  0.1151  0.1641 -0.0066
40603W        W71819  21.411  26.874   8.780 -0.1627 -0.0372  0.0416
40604W        W71820   2.468   8.618   0.618  0.0805  0.3165  0.2356
40605W        W71821  23.011   3.595   8.779 -0.0721 -0.1589 -0.2714
40606W        W71822  25.967  14.205   1.294  0.0719 -0.2010 -0.1833
40607W        W71823   8.519  15.649   9.381 -0.0311  0.2482 -0.0194
40608W        W71824  18.788   9.323   0.606 -0.0315 -0.0103 -0.2526
40609W        W71825   7.028   6.067   1.464  0.3458  0.0513  0.0307
40610W        W71826  19.579   0.625   3.289 -0.1779  0.1354  0.0497
40611W        W71827  16.340   7.185   8.728 -0.3597  0.1720 -0.0917
40612W        W71828   3.917   1.841   3.358  0.0582 -0.3078 -0.0804
40613W        W71829  24.205   6.885   7.877 -0.0542  0.0533  0.1016
40614W        W71830   2.395   8.870   0.175  0.1607 -0.0327 -0.0596
40615W        W71831  11.344  14.633   0.767  0.0794  0.0976  0.1732
40616W        W71832  22.427  21.078   8.599  0.3326  0.2438 -0.0349
40617W        W71833   2.457   7.121   9.622 -0.0646 -0.2302  0.1026
40618W        W71834   0.346  11.955   0.713 -0.0346  0.4019 -0.1475
40619W        W71835  23.700   7.894   2.506 -0.0029  0.1212 -0.0653
40620W        W71836  23.136  14.511   2.583  0.3643 -0.1329 -0.0413
40621W        W71837  26.495  21.051   3.346 -0.2020 -0.1082 -0.1968
40622W        W71838  19.759  21.981   3.395  0.2720  0.1300 -0.1053
40623W        W71839   9.975   2.805   1.478 -0.2160 -0.0873  0.0003
40624W        W71840  10.160   3.375   9.592  0.0665 -0.0570 -0.3339
40625W        W71841  27.562  24.159   3.294  0.1111  0.3480 -0.2198
40626W        W71842   1.314  26.690   9.523  0.2358  0.1870  0.0593
40627W        W71843   7.501   0.364   0.974  0.1839  0.0306  0.1166
40628W        W71844   0.203  10.666  10.132 -0.2534 -0.3050  0.0672
40629W        W71845  19.155  27.519   1.985 -0.0429 -0.1727 -0.0510
40630W        W71846   8.560  18.900   2.844 -0.3478 -0.3490 -0.0117
40631W        W71847   0.869  26.919   9.423  0.0178  0.1021 -0.1053
40632W        W71848   4.960  23.998   0.979 -0.0965  0.0006 -0.2867
40633W        W71849   4.715  25.541   3.649 -0.0484  0.0431  0.1595
40634W        W71850  19.344   1.452   2.254 -0.2734  0.0159  0.1808
40635W        W71851   5.697   8.764   2.367  0.1366  0.0552  0.0710
40636W        W71852  26.619   4.886   8.689  0.1088 -0.2504  0.3990
40637W        W71853   9.638  27.006   8.900 -0.1077  0.1866 -0.3256
40638W        W71854   5.498  16.446   1.757  0.3038  0.0271  0.0942
40639W        W71855  18.266  14.040   9.219  0.1293 -0.0279 -0.2101
40640W        W71856   0.584   1.132   8.566  0.1096 -0.1311 -0.2568
40641W        W71857  15.953  12.685   8.080  0.1077  0.1179 -0.2933
40642W        W71858   9.308  12.889   3.013 -0.1769 -0.0277 -0.0253
40643W        W71859   7.405   0.978   3.198 -0.0504  0.0042 -0.1728
40644W        W71860  25.143  11.528   9.083  0.4042 -0.2297 -0.1114
40645W        W71861  10.273   4.159   8.407  0.1364  0.2065 -0.0908
40646W        W71862  20.936  25.148   1.578 -0.2200 -0.1994  0.2352
40647W        W71863  23.382  24.811   2.500 -0.0366 -0.3129  0.2581
40648W        W71864   0.778   2.846   2.315 -0.0068 -0.0102 -0.2889
40649W        W71865   2.655   0.719   8.251  0.1357 -0.0972  0.1611
40650W        W71866   9.698   2.862   8.238  0.0116  0.0757  0.1367
40651W        W71867   7.998  15.941   2.251 -0.0369  0.0715 -0.1700
40652W        W71868  14.324  15.965   9.877 -0.1808  0.1782 -0.1433
40653W        W71869  18.889  10.211   9.836  0.0670 -0.0134 -0.2610
40654W        W71870   6.446   2.033   0.537 -0.0539  0.1863  0.1343
40655W        W71871  26.734   5.139   2.773 -0.1759  0.1974  0.1879
40656W        W71872  25.126  10.278   2.031  0.3177 -0.1010 -0.1129
40657W        W71873   8.934  20.791   9.926 -0.0416 -0.3178  0.0828
40658W        W71874  11.203  22.176   8.056 -0.1112 -0.0050 -0.2957
40659W        W71875  26.846   4.871  10.446  0.1148  0.3558  0.1309
40660W        W71876   9.568  20.293   8.231 -0.0754 -0.0188  0.4152
40661W        W71877  24.456   1.508   3.692 -0.1112  0.1664 -0.0495
40662W        W71878  15.239   1.304   8.418 -0.0572 -0.1478 -0.1875
40663W        W71879  27.466  26.220   8.836  0.1885 -0.0014 -0.0315
40664W        W71880  23.401   3.473   7.722  0.0237  0.1655  0.0321
40665W        W71881  16.135  14.631   2.241 -0.0630  0.0482 -0.0635
40666W        W71882  20.116  14.998   0.535  0.1752  0.3613  0.2211
40667W        W71883   5.540  23.492   2.703 -0.0752 -0.0827  0.0253
40668W        W71884   6.170  21.536   8.646 -0.2341  0.1599  0.0265
40669W        W71885   5.271  19.960   3.011 -0.0376 -0.0223 -0.2142
40670W        W71886  21.275   6.411   8.470 -0.1478  0.2090 -0.1146
40671W        W71887  27.042   9.791   9.340  0.0362 -0.0549  0.2257
40672W        W71888   3.780  16.076   9.531  0.3226 -0.0389  0.0511
40673W        W71889   5.085   9.021   2.182  0.1227  0.0071 -0.0878
40674W        W71890   2.309   4.265   9.271  0.1251  0.0169  0.2935
40675W        W71891   2.043   6.163   3.289 -0.0646 -0.2679 -0.2456
40676W        W71892  24.013  26.450   0.637  0.3113 -0.0013  0.0141
40677W        W71893   8.739   8.267   1.751 -0.0693  0.2787 -0.0750
40678W        W71894   5.961  14.693   3.293  0.1270 -0.0988  0.0436
40679W        W71895   1.110  26.267   8.107 -0.1156  0.0827  0.3489
40680W        W71896   5.650  25.856   4.301 -0.3055 -0.0793  0.0649
40681W        W71897   7.251   5.394   8.122  0.2836  0.0675 -0.0110
40682W        W71898  19.576  24.243   9.925  0.0718  0.0996  0.1740
40683W        W71899  12.454  15.845   1.729 -0.2633  0.2486 -0.0664
40684W        W71900  16.213  23.474  10.524  0.0562  0.3023 -0.2041
40685W        W71901  17.930  16.624   9.593  0.0129  0.0733  0.0835
40686W        W71902  22.835  24.439   9.070  0.2584 -0.0773  0.3135
40687W        W71903  10.474  15.644   0.207  0.0598 -0.2039 -0.1777
40688W        W71904   8.614  15.649   0.209 -0.1174 -0.0426  0.5592
40689W        W71905   5.068  21.925   0.146 -0.0476 -0.3629  0.0609
40690W        W71906   3.353  22.161   7.585 -0.0844 -0.0292 -0.1746
40691W        W71907   5.077  22.007   2.763 -0.2908  0.2007 -0.0404
40692W        W71908  17.714  14.624   0.588  0.1167  0.2879 -0.1523
40693W        W71909  20.402  25.933   9.321 -0.1349  0.1712 -0.4687
40694W        W71910   8.373   2.753  10.087  0.2371 -0.2518  0.1920
40695W        W71911   2.052  23.827   7.870 -0.0125  0.0800 -0.1576
40696W        W71912   4.519  18.680   8.007 -0.1053 -0.0029  0.4744
40697W        W71913   9.206  11.878   0.810  0.1868  0.0101  0.1586
40698W        W71914   5.932   9.313   9.720  0.0638 -0.1011  0.1828
40699W        W71915   9.119  12.348   3.393 -0.2687  0.0135 -0.0654
40700W        W71916  17.734   4.248   1.437 -0.1173 -0.1110  0.1217
40701W        W71917  24.198   9.266   8.230 -0.0707  0.1236 -0.0144
40702W        W71918  19.289  24.550   9.339 -0.4022  0.0947 -0.1171
40703W        W71919  22.262   4.428   2.486 -0.0843 -0.1515 -0.0326
40704W        W71920  12.228  25.575   9.891  0.1968  0.1222  0.0385
40705W        W71921  17.826   7.833   8.682  0.2324 -0.1400  0.1896
40706W        W71922  11.964  20.331   0.495 -0.0425  0.3701 -0.0076
40707W        W71923  13.292   3.177   0.685  0.1173 -0.1772 -0.0215
40708W        W71924   4.016  14.850   1.339 -0.4023  0.1459 -0.2709
40709W        W71925   4.139   6.313   9.097  0.1302  0.0803  0.1301
40710W        W71926  19.221  11.703   2.332 -0.0439  0.1269 -0.1652
40711W        W71927  27.520  10.053   9.056  0.0439  0.3558  0.0278
40712W        W71928  20.785   8.186   7.128  0.1617  0.2035  0.1655
40713W        W71929  20.674  16.980   9.217  0.2263 -0.0295  0.3817
40714W        W71930  23.352  21.168   7.530 -0.3609 -0.0041 -0.1686
40715W        W71931   0.103   7.707   8.804  0.0171 -0.3886 -0.2361
40716W        W71932   2.032  10.504   1.335 -0.2350 -0.2415  0.1279
40717W        W71933   8.629   9.268   9.500 -0.2379 -0.2545  0.0146
40718W        W71934   1.320   5.013   9.485 -0.1749 -0.0290 -0.0960
40719W        W71935  13.986  17.598   0.269  0.3562 -0.1819 -0.0385
40720W        W71936   3.634   5.338   8.991  0.0374 -0.3962  0.3126
40721W        W71937  11.610   3.671   2.386 -0.0635  0.0083 -0.2888
40722W        W71938  12.735   2.847  10.452  0.2243 -0.0747 -0.4401
40723W        W71939   9.231   0.050   1.394 -0.0500 -0.0243 -0.1832
40724W        W71940  10.900  27.315   9.294 -0.0600  0.1052 -0.2123
40725W        W71941   4.418  16.392   8.507 -0.0968  0.0082 -0.2022
40726W        W71942  23.404   3.670   8.182  0.2914  0.2595 -0.0464
40727W        W71943  21.317   7.630   2.732 -0.2490 -0.1987  0.0472
40728W        W71944  20.715   1.705   1.284 -0.2018  0.2910  0.0527
40729W        W71945  13.274  20.553   9.193  0.1403  0.0756  0.0021
40730W        W71946  15.225  11.197   8.417  0.4652  0.2402 -0.2550
40731W        W71947  24.174  19.534   0.917  0.1006  0.0516  0.1596
40732W        W71948  23.700   5.325   9.824  0.2271 -0.0185  0.0950
40733W        W71949  21.427   2.488   1.482 -0.0215  0.0462  0.1867
40734W        W71950   8.868  14.049   2.111  0.0912 -0.1081  0.2628
40735W        W71951   5.223   9.133   0.706 -0.3601 -0.1597  0.4253
40736W        W71952  26.037  21.010   2.202  0.0058 -0.1254 -0.1555
40737W        W71953  17.071   8.515   2.351 -0.1076  0.3692  0.2144
40738W        W71954   9.516   6.705   2.718  0.3262  0.0615 -0.2429
40739W        W71955  22.428  19.281   2.721 -0.0504  0.1846  0.0375
40740W        W71956   4.971   0.393   0.828  0.2117  0.1614  0.4578
40741W        W71957  25.663   7.200   8.986  0.0814  0.1339  0.1633
40742W        W71958   0.009   8.340   9.280 -0.1601 -0.0330 -0.1431
40743W        W71959  21.334   8.128   9.144  0.1013  0.0043 -0.2357
40744W        W71960  23.011   4.830   9.434  0.2079 -0.2695  0.2343
40745W        W71961   8.458  27.172  10.373  0.4842  0.0103  0.0878
40746W        W71962   9.651  23.283   8.692  0.1593  0.0969 -0.1794
40747W        W71963  21.935  21.701   9.000  0.0715  0.1548 -0.0649
40748W        W71964   4.723   3.600   8.431  0.0907 -0.0577  0.3098
40749W        W71965   6.771   8.630   8.815 -0.0050  0.0534  0.1521
40750W        W71966  22.324  18.796   8.005  0.0086  0.3086  0.2187
40751W        W71967  14.341  13.542   7.848  0.1190  0.2235  0.1092
40752W        W71968   2.982  26.510   2.011 -0.0401  0.2097 -0.0706
40753W        W71969  15.711  11.413   2.330 -0.0973  0.2275 -0.0322
40754W        W71970  10.582  24.478   3.196 -0.2588 -0.3591 -0.1738
40755W        W71971   2.022  18.007   9.110  0.0920 -0.0616 -0.0341
40756W        W71972  13.064   1.760   3.921 -0.0676  0.2406  0.1489
40757W        W71973  25.329  18.748   3.306  0.1356  0.1442 -0.3262
40758W        W71974  19.849   4.531   1.517  0.1471 -0.1247 -0.0081
40759W        W71975  24.690  22.956   1.147 -0.1938 -0.0331  0.0817
40760W        W71976   1.982  12.652   2.486 -0.2530  0.3711  0.2253
40761W        W71977  18.162  25.047   8.222  0.1059 -0.0105  0.2942
40762W        W71978   0.044  19.028   4.177  0.0710  0.2071  0.1594
40763W        W71979  21.191  27.119   0.713  0.0218  0.0270  0.0978
40764W        W71980   2.883  11.128   2.170 -0.0049  0.1784 -0.0591
40765W        W71981   3.508  18.395   8.310  0.0646  0.0796 -0.1611
40766W        W71982  26.640   4.769   2.459  0.1757 -0.1223  0.3642
40767W        W71983  18.310   7.036   9.417  0.2337 -0.0597 -0.2785
40768W        W71984   5.268   3.067   0.091  0.2990 -0.0770  0.1275
40769W        W71985  20.682   2.157   0.107 -0.0242 -0.0568  0.1618
40770W        W71986  13.673  20.242   9.990 -0.2635  0.2178 -0.3290
40771W        W71987  22.829  15.010   7.358  0.1457 -0.2275 -0.2072
40772W        W71988  12.242  15.200  10.120  0.3761  0.1169  0.0308
40773W        W71989  18.563  14.534  10.065 -0.0319  0.0904 -0.0977
40774W        W71990  13.583  11.288  10.239  0.2533  0.0348 -0.0278
40775W        W71991  21.912  12.756   9.562  0.3658  0.3086  0.2216
40776W        W71992   2.405  18.006   0.633  0.0344 -0.2533 -0.2550
40777W        W71993  13.190   3.425   0.254 -0.3029 -0.3360  0.0637
40778W        W71994   9.254  17.901   8.608 -0.0979 -0.2623  0.1168
40779W        W71995   7.592  11.746   0.284 -0.0440  0.0919  0.2161
40780W        W71996  22.634  21.015   8.119  0.0873 -0.3245 -0.1404
40781W        W71997  19.223   1.867   1.935  0.2242 -0.0079 -0.2424
40782W        W71998  19.008   8.764   1.993 -0.0101 -0.1564  0.1529
40783W        W71999   1.940  16.067   0.771 -0.0030 -0.2000 -0.1317
40784W        W72000  12.564  24.228   8.509 -0.0155  0.3240  0.2159
40785W        W72001   3.954  25.082   8.443  0.0922  0.0154  0.1097
40786W        W72002   1.617  19.396   9.504  0.1442 -0.0465 -0.1880
40787W        W72003  21.305   8.418   8.256 -0.1646 -0.0868 -0.0191
40788W        W72004  22.118   8.934   8.971  0.2836 -0.1801 -0.2558
40789W        W72005   4.251   6.643   1.462 -0.2725 -0.2878 -0.3348
40790W        W72006  12.726  26.778  10.022 -0.1539  0.3445 -0.2125
40791W        W72007  18.304   8.302   3.016  0.2413  0.0295  0.0903
40792W        W72008  23.531  26.849   8.896 -0.1601 -0.2992  0.0370
40793W        W72009  16.621  24.516   3.425  0.5399  0.1661 -0.2186
40794W        W72010   2.019   4.026   7.728 -0.1178  0.2163 -0.1950
40795W        W72011  19.914  15.689   9.470  0.1597 -0.3928  0.0444
40796W        W72012  25.293   0.084   9.251 -0.0753 -0.2653 -0.0160
40797W        W72013   7.990  20.629  10.462  0.0023 -0.1727  0.1132
40798W        W72014  25.868   6.356   0.523 -0.0265 -0.1906  0.1159
40799W        W72015   2.506  14.784   1.745 -0.0635 -0.3277 -0.0547
40800W        W72016   1.500  26.816   2.941  0.0843 -0.0669 -0.2661
40801W        W72017  11.273  25.773   8.874  0.2511 -0.3378  0.0367
40802W        W72018  16.865  13.809   8.094  0.0789 -0.2320  0.0929
40803W        W72019  19.322  21.593   9.940  0.1250  0.4013 -0.0904
40804W        W72020  16.610   1.173   8.922 -0.0047  0.0539 -0.0915
40805W        W72021  20.472  23.526   3.228  0.0614  0.1439 -0.1287
40806W        W72022   3.495  26.698   3.401 -0.0683  0.3235  0.0010
40807W        W72023   0.017   4.783  10.128 -0.1343  0.1715  0.0994
40808W        W72024  20.367   4.028   0.118  0.0648  0.2725 -0.0129
40809W        W72025  21.836  18.072  10.208  0.1716 -0.2458  0.0556
40810W        W72026  20.876   6.713   0.409  0.0420 -0.2463 -0.1754
40811W        W72027   2.021  17.415   2.165  0.0304 -0.0668 -0.1109
40812W        W72028   7.344   1.640   7.691 -0.0231 -0.0829  0.2614
40813W        W72029  10.164   2.850  10.131 -0.0904  0.1741 -0.0942
40814W        W72030  10.522   4.485   1.070 -0.0394 -0.0706  0.0405
40815W        W72031  11.350   0.796   0.213 -0.2805  0.1095  0.2235
40816W        W72032  19.765  22.348   8.536 -0.0646 -0.0096  0.1274
40817W        W72033   8.322   5.521  10.186 -0.1510  0.0097  0.2052
40818W        W72034  13.331  19.277   0.896  0.0686 -0.3082 -0.2509
40819W        W72035   9.053  13.729   1.235 -0.0850 -0.0719  0.1879
40820W        W72036  18.358  21.919   0.547  0.2067 -0.2472 -0.0673
40821W        W72037   8.104  23.096   3.495  0.0870  0.2599 -0.2513
40822W        W72038  16.352  14.489  10.159 -0.1192 -0.0672 -0.0574
40823W        W72039  21.836   6.620   3.383 -0.1785  0.3239  0.1080
40824W        W72040  18.845   1.952   9.459 -0.0850 -0.4768  0.1326
40825W        W72041  16.152  24.655   8.671 -0.0928  0.0791  0.2519
40826W        W72042  13.507  18.721   7.711  0.1609  0.2587  0.0242
40827W        W72043   3.697   7.243   1.374 -0.0695  0.0602  0.2047
40828W        W72044  12.828  10.288   2.485 -0.2936  0.1149  0.0149
40829W        W72045   1.063  19.715   3.256  0.1553  0.1399 -0.2458
40830W        W72046  13.338   6.803   8.873 -0.2769  0.0816  0.2185
40831W        W72047   5.737  13.093   0.280 -0.3395  0.1184  0.0428
40832W        W72048   1.296   8.843   8.123  0.0027  0.2344 -0.0626
40833W        W72049  19.210   3.604   8.369 -0.0318  0.0057  0.1786
40834W        W72050  12.925  23.073   7.857  0.0748  0.0781 -0.3350
40835W        W72051  12.022   9.486   9.309 -0.1920 -0.0392  0.1644
40836W        W72052  13.424  20.209   9.562  0.1280 -0.0795  0.2406
40837W        W72053  11.997   7.341   1.643 -0.3081 -0.3126 -0.1094
40838W        W72054  26.757  13.906   8.018 -0.0383 -0.0735 -0.0194
40839W        W72055  18.266  16.069   1.717 -0.1918  0.0208  0.0344
40840W        W72056   3.660   0.061   3.397 -0.1349 -0.1336 -0.4533
40841W        W72057  21.644   1.502  10.055 -0.0403  0.2613 -0.0578
40842W        W72058  13.988   8.573   9.305 -0.0739 -0.1395 -0.1751
40843W        W72059  27.018  15.437   0.229 -0.1626 -0.1092  0.0987
40844W        W72060   4.566  25.975   3.214  0.0977  0.1570  0.0356
40845W        W72061   8.184  26.090  10.325  0.1369 -0.1305  0.0421
40846W        W72062  16.536   0.814   0.474  0.0927  0.0549 -0.1827
40847W        W72063   1.471  18.545   2.423 -0.1204 -0.0034  0.3897
40848W        W72064  13.815  22.738  10.084 -0.2155  0.2602 -0.0489
40849W        W72065  22.184  17.114   8.577 -0.0357  0.1441 -0.1188
40850W        W72066  19.744   2.827   0.587  0.0826  0.1917 -0.2382
40851W        W72067   1.812  24.192  10.380  0.2320 -0.0213 -0.2088
40852W        W72068  18.559  12.931  10.199 -0.1130 -0.1812 -0.0507
40853W        W72069  11.166  19.245   2.317 -0.2616  0.2361  0.1897
40854W        W72070  23.808   6.784   9.674 -0.2249  0.0050 -0.0005
40855W        W72071  27.170  14.214   1.660 -0.0515 -0.2299 -0.3205
40856W        W72072   2.891   1.990   9.133 -0.0696 -0.1955 -0.1755
40857W        W72073   9.527  24.227   2.022  0.0076 -0.0107  0.1523
40858W        W72074   6.694  21.168  10.047  0.0965 -0.0046 -0.0337
40859W        W72075   0.767   3.445   1.686 -0.0296  0.0851  0.0908
40860W        W72076   7.996   2.770   0.167  0.0934  0.0934 -0.1411
40861W        W72077  11.356  26.535   3.286  0.2813 -0.1869 -0.2318
40862W        W72078  27.151   5.737   0.372  0.0173 -0.2382  0.1565
40863W        W72079   8.274  21.624   2.494 -0.1639  0.3098 -0.0605
40864W        W72080  21.713  21.778   0.838 -0.4881 -0.0621  0.2049
40865W        W72081  14.046   7.818   1.656 -0.0181 -0.4538 -0.1333
40866W        W72082  14.150  12.251   9.234 -0.1611  0.0478 -0.1156
40867W        W72083  24.727   9.284   2.914 -0.0771  0.0637 -0.2282
40868W        W72084   3.792  11.123  10.071  0.1264  0.1200 -0.1628
40869W        W72085   5.814  26.846   1.760  0.4529  0.1344 -0.1967
40870W        W72086   2.977   7.036  10.258 -0.0495  0.2875 -0.0607
40871W        W72087  26.889  18.838   3.878 -0.1558  0.1678 -0.0434
40872W        W72088  24.909   3.268   2.330 -0.0630 -0.1015 -0.1059
40873W        W72089  11.501  23.335   9.375  0.0049  0.2484 -0.0221
40874W        W72090  18.218   6.801   7.824 -0.0446  0.1455  0.3111
40875W        W72091  20.300  21.261   9.402 -0.1354  0.1324  0.2125
40876W        W72092   6.104   5.753   8.507 -0.3766  0.0750  0.0979
40877W        W72093  23.206   5.443   2.745 -0.0515  0.1340  0.2067
40878W        W72094  24.304   7.402   0.482  0.1921  0.0095  0.2558
40879W        W72095  20.512   7.125   3.618 -0.1729 -0.0816  0.3125
40880W        W72096  12.047  16.059   0.290 -0.1552 -0.1868 -0.0486
40881W        W72097   1.271  19.499   9.919 -0.1865 -0.0241  0.3059
40882W        W72098   1.501   3.008   1.329  0.0850  0.2815 -0.0389
40883W        W72099   9.613   7.078   2.374  0.2313  0.2407 -0.0331
40884W        W72100  22.994  16.936   8.945  0.0776  0.1476  0.0797
40885W        W72101  17.024  20.937   9.452  0.1127  0.0952  0.1769
40886W        W72102  26.914  27.067   9.450  0.2273  0.0316 -0.2653
40887W        W72103  14.089  19.055   0.222  0.0347 -0.1380  0.0344
40888W        W72104   9.294  21.456   9.701 -0.0701 -0.2264  0.1497
40889W        W72105   8.881  14.091   9.446 -0.5373  0.0763  0.2116
40890W        W72106  14.411  12.834   9.153  0.0220 -0.1553  0.0504
40891W        W72107  18.891  19.697   0.356  0.0579 -0.2042 -0.0962
40892W        W72108  11.109  20.521   0.285 -0.0538  0.0316  0.2510
40893W        W72109   8.866  24.754   1.953 -0.2011  0.0726  0.1525
40894W        W72110   5.551  19.486   1.871 -0.1127 -0.0603 -0.0062
40895W        W72111   8.927  25.563   9.903 -0.3488 -0.0612 -0.0134
40896W        W72112   3.075  21.688   8.914  0.3133 -0.0588  0.2111
40897W        W72113   7.375   0.280   3.635  0.1079 -0.2750 -0.1811
40898W        W72114   0.718  18.722   1.160 -0.0102 -0.2745 -0.0449
40899W        W72115  25.399  26.028   1.593  0.0020  0.2001 -0.2697
40900W        W72116  22.866  26.244   8.953 -0.2258 -0.1115  0.2656
40901W        W72117  16.214  24.298   1.743 -0.1608  0.2806 -0.3945
40902W        W72118  25.401  23.305   0.844 -0.3290 -0.1780  0.2718
40903W        W72119  25.720  12.971  10.101 -0.0997 -0.1471 -0.1148
40904W        W72120   0.592  17.518   0.628  0.2465  0.1098  0.0766
40905W        W72121   5.336  26.477   0.201  0.0700 -0.2840 -0.1052
40906W        W72122  18.653  17.040   1.085 -0.1767 -0.1687 -0.1062
40907W        W72123  17.938   2.175  10.299 -0.0008 -0.1777  0.1484
40908W        W72124   1.976   9.683   9.473  0.1434  0.3068 -0.0754
40909W        W72125   3.214  17.893   1.186  0.0299  0.1819  0.3878
40910W        W72126   9.344  21.840   9.354 -0.2118  0.2078 -0.3678
40911W        W72127  19.472  18.907   8.525  0.1324  0.0560  0.1218
40912W        W72128   7.913   4.229   9.526  0.0024  0.2326  0.0675
40913W        W72129  11.731  27.594   1.803 -0.1366 -0.2330  0.0935
40914W        W72130   7.846   7.205  10.285  0.1971  0.0284 -0.0208
40915W        W72131   9.229   5.638   8.777  0.0357 -0.1311  0.2245
40916W        W72132  20.132  11.851   8.334 -0.1527 -0.3039  0.1737
40917W        W72133   2.336  13.241   9.947 -0.0457  0.1696 -0.3361
40918W        W72134   7.765  21.655  10.203 -0.1704  0.1253 -0.1442
40919W        W72135  16.550  14.911   3.541  0.2167  0.2400  0.0691
40920W        W72136   4.620  21.830   2.543  0.0939 -0.1605 -0.0527
40921W        W72137  13.962  19.469   0.526 -0.0908  0.1366 -0.0240
40922W        W72138  25.093   8.904   9.891  0.2193  0.1313  0.1175
40923W        W72139   8.589  21.930   1.052 -0.0660 -0.4065  0.1314
40924W        W72140   6.986  12.018   1.418  0.1256 -0.0195  0.3518
40925W        W72141   0.001   9.891   2.482 -0.0142 -0.2715 -0.2935
40926W        W72142   4.294  12.897   8.643  0.2662  0.0664  0.1856
40927W        W72143   9.402  12.589  10.139  0.1177 -0.2421  0.1297
40928W        W72144   6.516  17.339   2.967  0.0082  0.2109 -0.1181
40929W        W72145   0.682  10.433   1.150  0.0789 -0.0594 -0.0766
40930W        W72146  19.381   8.836   1.283  0.1731  0.0207  0.1607
40931W        W72147  12.554  18.549   8.793  0.0195 -0.2280 -0.0235
40932W        W72148  19.470   9.661   7.506 -0.1132 -0.1231 -0.2012
40933W        W72149  14.383  14.460   2.042 -0.1585 -0.1045 -0.1354
40934W        W72150   6.197   7.347   3.107  0.1705 -0.1253 -0.1642
40935W        W72151   7.551  19.253   2.865  0.1075  0.1397 -0.0331
40936W        W72152  16.372   5.995   9.279 -0.1173  0.1121 -0.0312
40937W        W72153  16.974   3.056   2.291 -0.1727 -0.0546 -0.3671
40938W        W72154  15.233  14.864  10.341 -0.0418  0.0231 -0.0637
40939W        W72155   1.801  21.662   1.765 -0.1137  0.1797  0.0196
40940W        W72156  10.275  18.819   3.013 -0.1554  0.1267 -0.3128
40941W        W72157  15.063  21.065   1.031  0.2863  0.1119 -0.0797
40942W        W72158  14.341   1.735   1.141 -0.0720 -0.0640 -0.2948
40943W        W72159  16.663  11.658   1.870  0.0020 -0.0962 -0.2049
40944W        W72160  16.463  21.903   1.879  0.0180 -0.1801  0.2947
40945W        W72161  21.019  15.492   1.031 -0.1161 -0.0755 -0.1033
40946W        W72162  24.940   5.748   7.992 -0.1807  0.1544 -0.3899
40947W        W72163   5.473   2.743   3.008  0.3932  0.3695 -0.1427
40948W        W72164  19.841   6.375   7.527  0.0336  0.0966 -0.3812
40949W        W72165  17.773  12.954   8.882  0.1964  0.3313 -0.0059
40950W        W72166  10.793  15.141  10.202 -0.1691 -0.1896 -0.0906
40951W        W72167  15.670  18.533   0.979 -0.2164 -0.2555 -0.2333
40952W        W72168   7.559   8.156   8.642 -0.1000  0.3548 -0.1878
40953W        W72169  11.930  18.447   9.679 -0.0348  0.3784 -0.0706
40954W        W72170  17.758  20.966   3.820 -0.0115 -0.1556  0.2264
40955W        W72171   7.976  12.679   7.794 -0.0238 -0.1693  0.0277
40956W        W72172  26.049   2.087   9.345 -0.1439 -0.0340 -0.4145
40957W        W72173  25.739  12.628  10.466  0.0137 -0.2135  0.2221
40958W        W72174  22.878  10.240   0.519 -0.2279  0.1807 -0.2261
40959W        W72175  24.382   5.658  10.336 -0.2188  0.1549 -0.6223
40960W        W72176   5.650  11.328   9.045 -0.1459 -0.0233  0.5739
40961W        W72177   1.548  17.569   1.000  0.0588 -0.0347 -0.2262
40962W        W72178   0.989  10.897   8.523  0.0191 -0.0051  0.0040
40963W        W72179  17.532   6.760   0.135  0.0419 -0.0369 -0.0204
40964W        W72180  24.906  11.897   1.995 -0.0063 -0.4419  0.0770
40965W        W72181   0.255   8.892   8.505  0.3237  0.0874 -0.0729
40966W        W72182  11.443  17.594   0.624 -0.0190  0.1036  0.0751
40967W        W72183  16.629  21.077   9.798  0.0862 -0.1489  0.0976
40968W        W72184  16.936  20.293   2.955  0.1170  0.2177 -0.2853
40969W        W72185   3.941   9.658   0.699 -0.2345  0.2936 -0.0563
40970W        W72186  24.580   1.031   3.038  0.2551 -0.2183  0.0824
40971W        W72187  23.459  23.460   1.861 -0.1634 -0.0841  0.0131
40972W        W72188  13.283   9.685   2.085  0.0665  0.1346 -0.1734
40973W        W72189  18.459   6.946   0.472 -0.2564 -0.1369 -0.0371
40974W        W72190   1.226   7.975   2.104 -0.0138  0.0337 -0.0560
40975W        W72191   4.151  10.399   9.449  0.2305  0.1214  0.1621
40976W        W72192   2.819  13.193   8.515  0.0215 -0.1271  0.0029
40977W        W72193  12.235   8.187  10.205 -0.0426  0.0048 -0.0107
40978W        W72194   7.800  25.601   0.075  0.1284 -0.0629  0.0220
40979W        W72195  16.596  21.961   8.653 -0.2989 -0.1962 -0.0441
40980W        W72196  11.824  24.025  10.214 -0.1984 -0.3576 -0.3962
40981W        W72197   8.182   4.260  10.093  0.0522  0.0427  0.1344
40982W        W72198  10.726  13.130  10.219  0.0610 -0.4863  0.0329
40983W        W72199   0.903   0.168   1.332 -0.2375 -0.0823 -0.0269
40984W        W72200   5.219  19.194   9.218  0.0295 -0.1706  0.0505
40985W        W72201  27.082  10.418   2.396 -0.1956  0.0258  0.1430
40986W        W72202   3.787  18.398   3.256 -0.0074  0.1480  0.1005
40987W        W72203  20.812  15.472  10.452 -0.2118 -0.4353  0.1897
40988W        W72204   2.020  14.215   3.011  0.2780  0.1200 -0.0518
40989W        W72205  10.598   2.447   0.485 -0.0064  0.2870  0.3114
40990W        W72206  15.971  22.070   1.765 -0.0307  0.0499  0.0116
40991W        W72207  14.010  20.573   1.960  0.1196  0.1223  0.3671
40992W        W72208   3.014  25.220   3.060 -0.1169  0.0535 -0.1558
40993W        W72209  24.299  26.609   8.422  0.0766 -0.0976  0.3491
40994W        W72210  16.583  24.065   8.014  0.1047  0.1460  0.1474
40995W        W72211  13.319  18.840   2.390  0.4188 -0.0202  0.1480
40996W        W72212   8.347  26.539   1.340 -0.1301 -0.2847 -0.0081
40997W        W72213  22.477   0.998   9.792  0.0496 -0.1368  0.2257
40998W        W72214  25.997  13.655   8.522 -0.1649  0.2353 -0.2955
40999W        W72215   3.715  16.353   0.453  0.1935 -0.2071 -0.2331
41000W        W72216  21.555  18.464   1.019  0.1166  0.1017 -0.0338
41001W        W72217   8.583   0.873   8.466  0.0714  0.0676 -0.1919
41002W        W72218   1.714  26.422   2.725 -0.0559  0.0458 -0.1470
41003W        W72219   8.175  27.177   1.680 -0.1612 -0.2809  0.3237
41004W        W72220  10.633   9.335   2.407 -0.1286  0.2682 -0.3556
41005W        W72221  26.372  23.024   8.097  0.0524  0.0375  0.2053
41006W        W72222  19.746   6.581   8.399  0.0397  0.0564 -0.1373
41007W        W72223  13.039  25.731   3.791  0.1551 -0.1794 -0.3103
41008W        W72224   2.620  22.007   9.888 -0.3487 -0.0124 -0.3047
41009W        W72225  20.588  21.333   8.891  0.1802 -0.0980  0.0152
41010W        W72226   2.427   1.674   9.334  0.2113 -0.2064  0.5310
41011W        W72227   4.692  23.950   2.534  0.2061  0.2105 -0.1769
41012W        W72228  23.957  10.339   2.767 -0.1196 -0.0817  0.1006
41013W        W72229   1.490   2.295   1.939 -0.1804  0.2119 -0.1877
41014W        W72230   2.324  27.248   9.105 -0.2620  0.0468  0.0090
41015W        W72231   9.762  25.687   8.504  0.5162  0.0195  0.4690
41016W        W72232  23.505  10.465   8.576  0.1110 -0.1366 -0.1666
41017W        W72233  22.109  12.988   0.389 -0.1061  0.3689  0.0794
41018W        W72234  22.402  15.055   7.907 -0.0527 -0.1763 -0.0590
41019W        W72235  16.519  11.445  10.306  0.0357  0.2419  0.0399
41020W        W72236  12.385  12.148   0.703 -0.0104  0.1378 -0.0646
41021W        W72237   1.030  22.046   3.465 -0.0685 -0.1575  0.0647
41022W        W72238  10.203   7.666   3.466  0.0967  0.1088  0.2236
41023W        W72239  17.299  12.764   7.533 -0.1217  0.0529  0.2198
41024W        W72240  18.094   2.733  10.361  0.0615 -0.1966  0.1236
41025W        W72241  18.731   7.934   8.815 -0.3041  0.1663 -0.1214
41026W        W72242  21.698  22.282   1.025  0.0063  0.0689 -0.0238
41027W        W72243  17.447  13.314   2.404  0.0777 -0.1531  0.3906
41028W        W72244  15.223  23.167   3.597  0.1429 -0.0891 -0.0675
41029W        W72245  23.427  11.104   3.031  0.0676 -0.2007  0.1036
41030W        W72246  11.955  18.830   0.042  0.0677  0.1834 -0.0631
41031W        W72247   3.453   7.622   9.865  0.0094 -0.0440  0.0875
41032W        W72248  11.026  12.220   7.290 -0.3490  0.4145 -0.0272
41033W        W72249  10.029  21.496   7.750 -0.0358  0.1558 -0.2606
41034W        W72250  23.503  10.798   1.738  0.0194 -0.0380 -0.1756
41035W        W72251  26.445   7.548   0.458 -0.2459 -0.1073 -0.2900
41036W        W72252   8.090   3.619   8.865 -0.2004  0.0674  0.1250
41037W        W72253  26.111   5.631   1.123  0.0766  0.2787  0.2739
41038W        W72254   5.111   8.661   0.324 -0.0008 -0.0419  0.1488
41039W        W72255   0.561  10.781  10.468  0.1958  0.2339 -0.2497
41040W        W72256   7.835   1.267   8.517 -0.0433 -0.0194 -0.2582
41041W        W72257  19.902  15.043   9.585  0.1156  0.0605  0.0850
41042W        W72258  14.806   2.017   0.705  0.1997 -0.1108  0.0808
41043W        W72259  19.906  23.580   9.174 -0.3382 -0.1176 -0.1453
41044W        W72260  14.556  25.374   8.258 -0.2434 -0.3369  0.1359
41045W        W72261   1.219  26.596   2.603  0.3576  0.0095  0.0368
41046W        W72262  25.353   6.607   1.169  0.1058  0.1176 -0.4032
41047W        W72263  10.387  27.208   8.543 -0.0578  0.1621 -0.1107
41048W        W72264   3.317  23.553   8.603 -0.1872  0.0132 -0.0416
41049W        W72265   8.739  24.809   0.256  0.1156 -0.0320 -0.1714
41050W        W72266   8.335  22.738   3.813 -0.0347  0.1624 -0.5528
41051W        W72267  18.434  18.280   1.693  0.1206 -0.3292 -0.0891
41052W        W72268  13.503   4.396   9.135  0.1014  0.0464  0.3095
41053W        W72269  18.894  27.391   0.594 -0.2657  0.0597  0.1741
41054W        W72270  16.309   7.115   1.292  0.2990  0.2615  0.0658
41055W        W72271  20.954  14.472   6.940 -0.0920  0.1580 -0.1259
41056W        W72272  24.078  23.522   0.770 -0.0182 -0.1024 -0.4947
41057W        W72273   0.533   3.178   9.908  0.3156  0.0848 -0.0541
41058W        W72274   9.042  22.267   3.275 -0.0381  0.0898 -0.0630
41059W        W72275  11.678  20.520   8.467  0.3337 -0.1127  0.0656
41060W        W72276  11.654   8.498   9.570 -0.0907 -0.0215 -0.0025
41061W        W72277  15.928  19.674   3.348  0.3284  0.2992 -0.0018
41062W        W72278  19.777  20.375   9.396 -0.0401  0.2812  0.1759
41063W        W72279  19.436  16.571   1.834  0.3048 -0.0849  0.0398
41064W        W72280   9.109   3.975   0.446 -0.1207  0.0351 -0.3351
41065W        W72281  22.852  13.572   2.778  0.1830 -0.1047  0.0423
41066W        W72282   5.635   5.100  10.493  0.0688 -0.1662  0.0304
41067W        W72283  19.084   2.691  10.515  0.2345 -0.0227 -0.0334
41068W        W72284  26.664  25.698  10.014  0.1056  0.2030 -0.0008
41069W        W72285  23.335  23.864   2.218 -0.0202 -0.0076  0.0812
41070W        W72286  11.002  11.340   2.818 -0.1731  0.1235 -0.0814
41071W        W72287  12.261  14.256   0.844  0.0672  0.0766 -0.0398
41072W        W72288  22.535  13.752   0.554  0.1529 -0.2180 -0.2360
41073W        W72289  12.204   9.955   7.711  0.0773  0.0987 -0.1744
41074W        W72290  19.123   8.481   7.614 -0.1645 -0.0866 -0.2081
41075W        W72291  20.067  17.031   3.052 -0.2284  0.0626 -0.0241
41076W        W72292   3.439   7.291  10.433 -0.0914 -0.1740  0.1243
41077W        W72293  10.154  24.307   3.346  0.3958 -0.1764  0.0491
41078W        W72294   6.183  22.254   0.790  0.3510 -0.0837  0.3527
41079W        W72295  13.861   5.887   8.036 -0.0717  0.1216 -0.1243
41080W        W72296  24.355  20.813   3.522 -0.3222  0.0204 -0.0489
41081W        W72297   4.481   3.193  10.053 -0.1933 -0.3662 -0.0585
41082W        W72298  16.429  23.318   1.204  0.1122  0.1177  0.0080
41083W        W72299  14.875  15.549   2.488  0.1672  0.1818 -0.0764
41084W        W72300   3.162   0.777   1.309 -0.1405 -0.0216  0.2182
41085W        W72301  16.708  16.184   2.636 -0.1163 -0.0066 -0.0913
41086W        W72302  27.005   7.873   3.141  0.1999 -0.1297 -0.1019
41087W        W72303  12.323   5.687   0.066  0.4167 -0.1503 -0.3777
41088W        W72304  11.511  11.124   0.987 -0.0074  0.2237  0.4093
41089W        W72305  26.094  12.767   1.676  0.4297 -0.1585 -0.1309
41090W        W72306   0.241  25.824   2.438  0.1461  0.0918 -0.1662
41091W        W72307   1.245   8.574   0.654  0.2439 -0.0612  0.2464
41092W        W72308  25.787  11.318   2.846 -0.1020 -0.2151  0.1863
41093W        W72309   6.760  17.962   1.379  0.4063  0.4388 -0.0986
41094W        W72310   4.036  24.726   1.416 -0.0887  0.0039 -0.1933
41095W        W72311  19.235  21.199   8.389  0.2143 -0.2295 -0.1700
41096W        W72312  24.727   1.503   8.579  0.1144 -0.1113 -0.1165
41097W        W72313  23.755  20.964   7.675 -0.0967 -0.0650  0.1844
41098W        W72314  21.668  17.332   9.644  0.1676  0.2830 -0.0716
41099W        W72315   5.866   4.239  10.014  0.1261  0.2028 -0.0919
41100W        W72316  24.772   0.610   9.171 -0.0209  0.0850  0.1785
41101W        W72317  26.816  19.277   0.492  0.3251  0.1550  0.2559
41102W        W72318  25.549  12.248   0.154  0.1432  0.2796  0.1778
41103W        W72319  20.346  14.897   1.616  0.0491  0.0341  0.0193
41104W        W72320  24.773  14.446   9.004 -0.5055 -0.0980 -0.1324
41105W        W72321   7.260   6.772   3.111 -0.0868  0.1282 -0.0733
41106W        W72322  20.685  11.579   2.892  0.3227 -0.1297 -0.3988
41107W        W72323  20.821  12.528   0.275 -0.3497 -0.3548  0.2687
41108W        W72324   2.396  26.165   1.288  0.1474 -0.0457 -0.0981
41109W        W72325   8.628   3.600   0.589  0.2062  0.0405 -0.0806
41110W        W72326  21.062  16.611   1.295  0.1692  0.0095 -0.0915
41111W        W72327  25.491   9.075   0.753  0.4965 -0.0396  0.2433
41112W        W72328   2.707   3.601   2.198  0.2322 -0.1982 -0.0450
41113W        W72329  13.698   1.816   1.831 -0.1813 -0.0534  0.0535
41114W        W72330   2.256  18.063   0.020  0.0456 -0.1069  0.1769
41115W        W72331  12.742  14.197   9.635  0.2765  0.0120 -0.1597
41116W        W72332   5.435  17.989   3.158  0.1710 -0.0661 -0.0014
41117W        W72333   5.171  20.348   0.558 -0.2368  0.1985 -0.1293
41118W        W72334  21.448   6.175   7.990  0.1114 -0.2528 -0.3715
41119W        W72335   1.285   7.660  10.036  0.0217 -0.0938  0.1982
41120W        W72336  21.888  12.120   7.256 -0.0647 -0.2100 -0.4574
41121W        W72337  23.717  17.915   2.540 -0.0016  0.1354  0.4083
41122W        W72338  26.638   9.051  10.361  0.0374 -0.4196  0.1885
41123W        W72339  22.097  20.367   1.413 -0.1985 -0.0934  0.0168
41124W        W72340   2.096  27.169   7.719  0.0330  0.1257 -0.0966
41125W        W72341   3.298  25.371   2.639 -0.1834 -0.1267 -0.0139
41126W        W72342   1.285   4.657   1.329  0.1740  0.0089 -0.0900
41127W        W72343   7.744  20.845   9.153  0.1770 -0.1369  0.0404
41128W        W72344   4.460   1.176   9.638  0.3251  0.2877  0.1927
41129W        W72345  13.210  21.568  10.420  0.3227 -0.0543  0.1258
41130W        W72346  25.065   6.659   8.333  0.0667  0.0148 -0.2662
41131W        W72347   5.614   0.752   8.569  0.1044 -0.1343  0.2812
41132W        W72348  21.770  11.883   8.618 -0.0474  0.0446  0.4420
41133W        W72349  21.179  24.957   7.795 -0.0385 -0.1977  0.2771
41134W        W72350   3.569   7.382   8.021 -0.2060 -0.1738 -0.0647
41135W        W72351   6.923  22.878   8.466  0.0388 -0.0721  0.1019
41136W        W72352   8.107  21.577   3.088 -0.1212 -0.2259  0.0295
41137W        W72353   2.693   4.649   7.999  0.2846  0.2879 -0.1538
41138W        W72354  19.730   7.813   8.641 -0.2283 -0.3348 -0.1483
41139W        W72355   8.046   1.079   7.197  0.0451 -0.2036  0.0828
41140W        W72356   5.690   3.270   8.140  0.0551 -0.1182  0.0213
41141W        W72357  25.045   7.369   9.639  0.1961  0.3098  0.0860
41142W        W72358   5.135  17.512   8.329  0.0124 -0.2983 -0.1476
41143W        W72359   3.398   1.534  10.299 -0.1340  0.1165  0.2441
41144W        W72360  10.510  14.465   7.893  0.2791 -0.0767  0.0837
41145W        W72361  13.512   6.613   0.424 -0.0813  0.1008 -0.2096
41146W        W72362   4.119  26.078   8.245  0.2053 -0.0444  0.0711
41147W        W72363  26.192  23.110   0.676  0.2248  0.1310 -0.0472
41148W        W72364  14.447  25.740   1.984  0.0179 -0.0304 -0.3528
41149W        W72365  25.483  18.133   8.142 -0.1469 -0.2761  0.0046
41150W        W72366   9.275   6.566   0.296 -0.4036 -0.2981 -0.1075
41151W        W72367  16.509  25.898   9.344  0.1635 -0.0553  0.0599
41152W        W72368  17.488   3.466   9.888 -0.3741  0.0027  0.1199
41153W        W72369   1.333  21.564   8.888 -0.0903 -0.1731 -0.0511
41154W        W72370  21.124  23.360   8.649  0.2180 -0.0407  0.0243
41155W        W72371  21.141   0.309   2.414 -0.0702  0.2536 -0.1700
41156W        W72372  11.561  27.399   3.730  0.0592  0.1921  0.0344
41157W        W72373  17.968  24.182   7.567  0.0686  0.2711 -0.0002
41158W        W72374   0.745  12.082   0.946 -0.2830  0.1030  0.2780
41159W        W72375   3.195   7.186   1.275  0.4029 -0.2027  0.0209
41160W        W72376  20.221  10.900   1.061 -0.5144  0.3061  0.2022
41161W        W72377  21.680  22.252   0.188 -0.0945 -0.2199  0.0448
41162W        W72378  15.368  27.339   2.009 -0.0116 -0.0334  0.0644
41163W        W72379   6.522   1.541   2.290 -0.2591 -0.0498  0.0501
41164W        W72380  10.505  27.501   7.886  0.0566  0.0237  0.3555
41165W        W72381   9.555   6.649   2.243  0.1548  0.0258  0.0552
41166W        W72382  19.318  21.084   0.672  0.0552 -0.2435  0.0889
41167W        W72383   4.997   9.620   0.391 -0.2317 -0.1405 -0.0749
41168W        W72384  19.457  12.989   0.138 -0.0614 -0.1036 -0.0522
41169W        W72385   8.274   5.756   8.868 -0.0254 -0.0074  0.1582
41170W        W72386   1.100   8.236   3.159 -0.2371  0.0719  0.2043
41171W        W72387  17.040   3.701   9.896 -0.0250 -0.1844 -0.3241
41172W        W72388  16.244  13.044   0.176  0.3868  0.0568 -0.0260
41173W        W72389   7.366   8.550   2.720 -0.0485 -0.0160 -0.1560
41174W        W72390  19.684   8.231   0.143  0.1653  0.1817  0.1187
41175W        W72391  18.221   3.356  10.135  0.1470  0.0646  0.0084
41176W        W72392  13.596  17.674   9.359 -0.2253  0.0434  0.0106
41177W        W72393   5.663  17.801   7.638 -0.4381 -0.2154 -0.1728
41178W        W72394  12.345   2.660   3.128 -0.1569 -0.1278 -0.0733
41179W        W72395  16.687   2.459   0.230 -0.1856 -0.1128  0.0084
41180W        W72396  26.454  19.648   1.837  0.0317 -0.1046 -0.0592
41181W        W72397  12.255  19.399   9.411  0.1421  0.0907  0.0099
41182W        W72398  11.449   0.500   7.709  0.1838  0.0107  0.1489
41183W        W72399  25.849   6.372   7.707 -0.0562 -0.0784 -0.4904
41184W        W72400  15.763  16.476   3.096 -0.2571 -0.2030  0.1788
41185W        W72401  25.819  25.715   2.890  0.1690  0.0469 -0.0300
41186W        W72402  11.985  24.624   8.464 -0.3932 -0.3742  0.0278
41187W        W72403  22.273  26.721   1.334 -0.2201 -0.2848 -0.2195
41188W        W72404   5.439   3.270   0.624 -0.0327 -0.0457 -0.2186
41189W        W72405   8.047  10.374   7.216  0.2125  0.2034  0.0611
41190W        W72406   1.739  14.629   3.028  0.1191 -0.0872  0.0570
41191W        W72407  18.343  26.672   7.653  0.2484 -0.0501  0.1564
41192W        W72408   9.849  17.436   9.708  0.1455 -0.0859 -0.3711
41193W        W72409   6.305   6.106   9.494  0.0518  0.0596  0.3497
41194W        W72410   3.982  18.148   1.343  0.1512  0.0770 -0.1254
41195W        W72411   8.096   7.893   7.811 -0.2438  0.1147 -0.1662
41196W        W72412  25.899   3.783   9.152  0.0058 -0.1639  0.1119
41197W        W72413  16.761  22.469   9.679  0.0187  0.0244 -0.2291
41198W        W72414  20.631   0.825   3.447  0.0235 -0.1588 -0.0804
41199W        W72415  15.420   4.417   3.640  0.2005  0.3645 -0.1222
41200W        W72416  20.974  20.641   3.137 -0.1353  0.3795 -0.1578
41201W        W72417  23.259   6.680   1.579 -0.0485  0.0915  0.0208
41202W        W72418  21.481   5.175   2.051  0.1347 -0.1380  0.0776
41203W        W72419  24.234  12.597   0.956  0.1101  0.0972 -0.0520
41204W        W72420  26.683  21.605   9.045 -0.0261  0.3527 -0.3852
41205W        W72421   5.463   7.618   0.242 -0.2468  0.2167  0.2984
41206W        W72422   0.595  27.070   3.008  0.1076  0.1363  0.3053
41207W        W72423  15.976   8.418   9.411  0.0151  0.0474 -0.0200
41208W        W72424  23.052  25.760   9.181  0.1762  0.1112  0.0847
41209W        W72425  16.892  14.424  10.531  0.1274  0.2295 -0.1431
41210W        W72426  26.155  24.565   0.175 -0.1485 -0.1575 -0.0080
41211W        W72427  10.364  11.126   1.617 -0.1857  0.0585  0.2125
41212W        W72428  25.134  17.402   8.645 -0.0019 -0.0812  0.0601
41213W        W72429  11.909  12.708   1.519  0.6985  0.0057 -0.0254
41214W        W72430   2.229  19.346   9.556 -0.0593  0.1539  0.0989
41215W        W72431  11.104   3.590   0.642  0.1214  0.0485  0.1392
41216W        W72432   9.853  19.103   7.848 -0.0085 -0.2148 -0.1033
41217W        W72433  21.399   9.789   9.938 -0.4224 -0.0561  0.0490
41218W        W72434   8.087   3.153   1.674 -0.0317  0.2530 -0.1790
41219W        W72435  11.695   6.975   1.912  0.2691  0.0500 -0.0768
41220W        W72436  17.747   9.550   0.081  0.1361  0.1245 -0.0255
41221W        W72437  19.177  18.198   3.148 -0.0537 -0.1148 -0.0123
41222W        W72438  13.946   3.826   0.949 -0.2379 -0.1808 -0.0350
41223W        W72439  26.883   7.734   0.130 -0.1469 -0.2363 -0.0250
41224W        W72440  12.712  18.715   0.607 -0.1007  0.1015 -0.2347
41225W        W72441  13.135   3.164   8.311 -0.1981  0.1197  0.0516
41226W        W72442  19.533  21.280   1.816 -0.0540 -0.2406  0.1442
41227W        W72443  17.936   5.697   9.105  0.1513  0.1185  0.0218
41228W        W72444  21.931  16.802   8.833  0.0671  0.3123 -0.1881
41229W        W72445  22.803  19.184   1.649 -0.0555 -0.3627 -0.2088
41230W        W72446   5.225   2.251   2.447 -0.2612  0.1089  0.0167
41231W        W72447  24.179  21.412   1.311 -0.1912  0.0446 -0.1083
41232W        W72448   6.590   8.101   8.669 -0.1645  0.3494  0.0721
41233W        W72449   7.264   3.079   3.556  0.2076  0.0509 -0.0773
41234W        W72450  12.361  21.226  10.112  0.0743  0.2018  0.1263
41235W        W72451   6.689  22.233   1.804 -0.1358  0.3001 -0.0595
41236W        W72452  18.669  25.171   7.466 -0.2760 -0.2389 -0.0499
41237W        W72453  22.256  14.619   9.060  0.3326 -0.2966 -0.2980
41238W        W72454   1.109  25.758   8.655 -0.0333  0.2689 -0.1774
41239W        W72455  25.051  18.322  10.180  0.2943  0.1743 -0.1158
41240W        W72456   9.623  16.893   1.005 -0.1598 -0.0414  0.0255
41241W        W72457   1.910  26.239   0.855  0.0104 -0.1505  0.0579
41242W        W72458  10.062   9.804   8.958 -0.1634  0.0339  0.1848
41243W        W72459   7.954  22.718   8.928 -0.2906  0.1939 -0.1368
41244W        W72460  21.223  17.596   9.745  0.2657  0.2585 -0.1886
41245W        W72461  19.425  11.863   2.846 -0.1860  0.0665  0.0668
41246W        W72462  15.518  26.355   8.442  0.4618 -0.0671  0.0359
41247W        W72463  20.436  14.378   9.122 -0.0100  0.0157  0.2933
41248W        W72464   6.683  20.925   0.191 -0.0989  0.0631  0.2475
41249W        W72465   8.963  11.971   2.172  0.1719  0.1459 -0.0456
41250W        W72466  12.363  10.353   0.620 -0.0766 -0.0395 -0.3161
41251W        W72467  15.030  23.056   1.166  0.1397 -0.2847 -0.0717
41252W        W72468  26.483  16.191   0.085 -0.0639 -0.0748 -0.0124
41253W        W72469  15.358   1.196   7.954 -0.4088 -0.2862 -0.0627
41254W        W72470   8.459  23.258   2.118  0.1030  0.3010  0.1821
41255W        W72471  21.682  26.099   0.522 -0.3714  0.1829 -0.3985
41256W        W72472   7.944  18.159   2.993  0.0860 -0.3711 -0.0444
41257W        W72473  26.627  11.703   2.599  0.0046 -0.1807 -0.1786
41258W        W72474  25.713  18.716   0.352 -0.6606 -0.3525  0.0164
41259W        W72475  23.978   1.009   8.755 -0.2615  0.0514  0.0520
41260W        W72476  21.781   0.558   1.438  0.4307  0.1217  0.0622
41261W        W72477  19.973  26.230   9.023  0.0314  0.1664  0.0659
41262W        W72478  26.302  24.574   1.804 -0.2152 -0.1512 -0.0152
41263W        W72479  21.750   7.603   2.957  0.0455  0.1882  0.0806
41264W        W72480   2.615   0.684  10.334 -0.1946 -0.1661  0.1309
41265W        W72481  11.350  10.909   8.234  0.0520  0.0247  0.0676
41266W        W72482   7.700   5.087   8.471  0.0829 -0.0246 -0.2809
41267W        W72483   7.252  15.498   9.020 -0.3077 -0.1838  0.0785
41268W        W72484   8.578  22.597  10.154 -0.2235 -0.0149 -0.0391
41269W        W72485  20.890  21.137   7.942  0.1122  0.0826 -0.1071
41270W        W72486  10.042  22.398  10.250 -0.0592 -0.2204  0.1092
41271W        W72487  10.789  15.205   3.226  0.0243  0.2607  0.1013
41272W        W72488  26.927  21.891  10.365  0.2756  0.1651 -0.2102
41273W        W72489   6.137   2.146   7.786 -0.1159  0.1623 -0.0570
41274W        W72490  20.099  12.331   0.421  0.0090 -0.0513  0.2970
41275W        W72491   4.974  15.401  10.507  0.2601  0.0382  0.0679
41276W        W72492  21.011  20.215   1.670  0.0851  0.0729 -0.1270
41277W        W72493   0.405  26.886   1.754  0.1668  0.0384  0.1323
41278W        W72494  23.606  12.475   3.608 -0.1170  0.0902 -0.2757
41279W        W72495  12.056  18.354  10.287  0.5123 -0.3338 -0.0454
41280W        W72496  15.141  20.388   9.416  0.0435 -0.1428  0.0241
41281W        W72497  20.596  12.567   9.576 -0.0623 -0.0551 -0.0752
41282W        W72498  27.309  10.973   0.061 -0.0195 -0.4977  0.1932
41283W        W72499  25.889   4.042   0.547  0.2310 -0.3102  0.0089
41284W        W72500   8.371  12.999   2.689 -0.0949  0.0926  0.0972
41285W        W72501  14.505   6.931   1.596 -0.1403  0.0884 -0.4020
41286W        W72502  14.209  11.032   8.762 -0.2035 -0.4176  0.2461
41287W        W72503  10.060   5.471   8.634 -0.2086 -0.0732  0.1310
41288W        W72504   5.925  12.882   8.483  0.0189 -0.1481  0.1147
41289W        W72505   1.172   3.645   0.337  0.1228  0.2159 -0.0401
41290W        W72506  15.990  19.191   0.993 -0.0761  0.1188 -0.1127
41291W        W72507  11.165  14.568   9.366 -0.0349 -0.1647  0.0037
41292W        W72508  25.524   9.794   2.509  0.0212 -0.0869 -0.0156
41293W        W72509  27.467  22.517   9.434  0.1389  0.2122 -0.2047
41294W        W72510  18.260  18.231   3.085 -0.2215 -0.4279  0.1431
41295W        W72511   5.348   7.929   9.929  0.1209  0.1830  0.0202
41296W        W72512   6.631  10.712   8.223  0.2362  0.0378  0.0628
41297W        W72513  18.528  27.105   0.806 -0.0588 -0.1902  0.0932
41298W        W72514  10.489   7.425   9.321 -0.3414  0.1386  0.1184
41299W        W72515   0.842  22.356   3.143 -0.1884 -0.0646 -0.3908
41300W        W72516  17.899  23.648   9.890 -0.0420  0.0704 -0.0562
41301W        W72517   0.303  16.692   2.928 -0.0768 -0.3888 -0.0473
41302W        W72518   1.858  21.836   3.060 -0.0857  0.0734  0.0973
41303W        W72519  24.849  27.172   9.045  0.0287  0.0329  0.5062
41304W        W72520  11.430  10.054   2.746 -0.0626 -0.1515  0.1164
41305W        W72521  13.801  27.002   1.624  0.2116  0.0218  0.1581
41306W        W72522  10.607  21.697   2.125  0.0711 -0.0701 -0.1034
41307W        W72523   7.078  17.878   9.869 -0.0794 -0.0198 -0.0038
41308W        W72524  20.581   6.427   9.212  0.2324 -0.0220 -0.3579
41309W        W72525  16.586  22.456   7.547  0.2144  0.0782 -0.1270
41310W        W72526  15.525   0.418   2.929  0.1113  0.0329 -0.0666
41311W        W72527  12.743  17.091   0.582  0.2008  0.0495  0.0090
41312W        W72528  25.191  19.522   1.914 -0.3501 -0.0996  0.0256
41313W        W72529   7.355   6.771   8.626  0.0273 -0.0425  0.0617
41314W        W72530  26.179   4.260   9.340 -0.0553 -0.0903 -0.1413
41315W        W72531   1.301  25.105   9.209  0.0397 -0.4203 -0.0894
41316W        W72532  16.340   0.351   3.641 -0.0513  0.0486  0.2619
41317W        W72533  22.557   3.330   8.965 -0.1421 -0.1111  0.3145
41318W        W72534   6.457  12.841   9.197  0.1156 -0.1013 -0.1233
41319W        W72535  10.248   0.140   9.030 -0.3432 -0.0071 -0.1388
41320W        W72536  25.723   5.922   0.780 -0.0366 -0.0094  0.0193
41321W        W72537  14.801   8.251   9.592 -0.0219 -0.0810  0.3257
41322W        W72538  22.575   8.670  10.322 -0.4934  0.0216  0.2389
41323W        W72539   4.817  18.046   7.177 -0.0554  0.0835  0.0294
41324W        W72540  14.520  19.819   1.263 -0.0515 -0.0676  0.0131
41325W        W72541  20.051  16.704   8.515  0.1049 -0.1039 -0.1948
41326W        W72542   4.113   4.465   8.493 -0.0340  0.0297  0.0676
41327W        W72543  11.915   3.169   0.057 -0.0446  0.3133  0.2696
41328W        W72544   2.235   0.481   2.355 -0.0109 -0.0766 -0.0103
41329W        W72545   5.002   1.405   2.783 -0.0994 -0.1812 -0.1996
41330W        W72546   4.401  21.653   8.738 -0.0115 -0.1518 -0.0422
41331W        W72547   7.098  26.815   1.660  0.5493 -0.1483  0.0217
41332W        W72548   9.001  13.625   9.853  0.0224 -0.0784 -0.0976
41333W        W72549  12.652   5.305   1.275  0.1271 -0.0309 -0.3908
41334W        W72550  10.830   3.618  10.229  0.0412 -0.1832 -0.0892
41335W        W72551   8.747  11.656   1.868  0.0312 -0.1815  0.1178
41336W        W72552  24.418   4.071   2.629  0.2381 -0.0032 -0.0513
41337W        W72553  20.122  10.171   6.833  0.2255 -0.1088  0.1072
41338W        W72554  19.779  15.760   9.029 -0.0210 -0.0126  0.2808
41339W        W72555  17.667   1.570   1.671 -0.0925  0.0812 -0.2376
41340W        W72556  12.103  25.842   0.353  0.1240 -0.0590  0.2942
41341W        W72557  24.988  11.337   0.859  0.1940  0.1282 -0.4135
41342W        W72558   8.667  23.556   2.504 -0.0516 -0.1235 -0.0691
41343W        W72559   2.959  16.408   3.317  0.4014 -0.1669  0.0691
41344W        W72560  23.236  10.059   9.354 -0.0457  0.2505 -0.2237
41345W        W72561  16.802  22.861   0.891 -0.1828  0.4073  0.2407
41346W        W72562   9.736  27.291  10.133 -0.2266 -0.0303  0.3212
41347W        W72563   9.730  21.618   1.908  0.0348 -0.0983  0.2547
41348W        W72564  25.716   5.408   9.873  0.0219 -0.2209 -0.1786
41349W        W72565   0.368   6.417   8.293  0.1337 -0.1307 -0.1464
41350W        W72566   3.917  17.006   7.952  0.0415 -0.0571 -0.1970
41351W        W72567  20.911  18.396   3.581  0.0744 -0.1282  0.1740
41352W        W72568  10.521  25.204   0.470  0.0781 -0.1903 -0.0483
41353W        W72569   6.978  15.277   9.878  0.0375 -0.1237 -0.1490
41354W        W72570   2.660   7.996   9.982 -0.1399 -0.3781 -0.2470
41355W        W72571   7.538   0.989   9.600  0.0023  0.1027 -0.3023
41356W        W72572   2.487   5.142   2.592 -0.0768 -0.1078  0.0764
41357W        W72573  12.382  17.036  10.413  0.0292 -0.1757 -0.1167
41358W        W72574  10.279  22.979   2.307  0.1555  0.0715  0.1265
41359W        W72575  11.720  11.924   8.524  0.2292 -0.0723  0.2417
41360W        W72576  13.993  27.302   0.118 -0.0662  0.0583  0.0375
41361W        W72577  23.959  25.693   8.298  0.3514 -0.0360 -0.0530
41362W        W72578  25.861  24.708   1.493  0.1794  0.2246 -0.1931
41363W        W72579  14.139  10.083   0.198 -0.0469 -0.0967  0.2977
41364W        W72580  16.594  20.898   2.630  0.0446  0.0035  0.1026
41365W        W72581  14.562  17.040   2.528  0.0108 -0.0762 -0.1232
41366W        W72582   8.885  12.182   9.076 -0.1237 -0.1523  0.1544
41367W        W72583  22.770   2.121  10.110 -0.0937 -0.0682 -0.1987
41368W        W72584  20.454  27.481  10.423  0.0918  0.1961  0.0908
41369W        W72585  19.912  27.338   9.890 -0.0746 -0.2127 -0.0992
41370W        W72586  10.620   3.210   9.353  0.2236 -0.0603  0.0641
41371W        W72587  21.135  25.650  10.475 -0.1977 -0.1013  0.1694
41372W        W72588  18.108   3.718   8.436 -0.1064 -0.1224 -0.0198
41373W        W72589  26.203   2.036   0.820  0.1102  0.1618 -0.0187
41374W        W72590   8.308   6.306   8.029 -0.2781 -0.0179 -0.0401
41375W        W72591  13.253  13.026   1.640 -0.0866 -0.0253 -0.3832
41376W        W72592   4.127   9.719   8.767  0.1390 -0.1230  0.1805
41377W        W72593  27.216  11.208   2.727  0.1669  0.0054 -0.3011
41378W        W72594   8.890   2.394   7.856  0.0387  0.0377 -0.1385
41379W        W72595   3.946  10.833   0.903  0.0487 -0.2460 -0.3996
41380W        W72596  23.423  26.395   8.690 -0.3137 -0.2820 -0.1733
41381W        W72597  23.992   4.758   8.708  0.0077  0.1499  0.2947
41382W        W72598  23.792   5.399   9.351 -0.2213  0.3477  0.2195
41383W        W72599  16.062  12.237   1.136 -0.0952  0.0238 -0.1852
41384W        W72600  12.975  21.846   1.114 -0.0715 -0.0940 -0.1051
41385W        W72601  10.687  15.062   0.752 -0.0671  0.0502  0.3162
41386W        W72602  13.458  19.267   9.630  0.0574  0.1711  0.0668
41387W        W72603   8.872  11.403   3.146  0.0725 -0.1300  0.4177
41388W        W72604  12.012   6.338   1.189  0.0862 -0.3019  0.1117
41389W        W72605   1.167   6.417   3.040 -0.1655  0.0671 -0.0808
41390W        W72606   7.034  21.286   8.409 -0.0185  0.0529 -0.0209
41391W        W72607   0.855  21.383   1.522 -0.1540 -0.1497 -0.0159
41392W        W72608  15.406   0.685   7.827 -0.0163  0.1085  0.2422
41393W        W72609  16.645   2.444   7.760  0.1222 -0.0571 -0.1160
41394W        W72610  18.604   7.731   7.937 -0.0926  0.2531 -0.1336
41395W        W72611   6.337  16.437   9.887  0.0638  0.2238 -0.1864
41396W        W72612  11.377  16.185   2.571 -0.0036 -0.2106 -0.1379
41397W        W72613  20.939  12.683   1.266 -0.2660 -0.1833  0.0407
41398W        W72614   9.016  16.933   9.434  0.2219  0.1594 -0.4810
41399W        W72615   1.423  25.289  10.501 -0.2464  0.0133  0.3441
41400W        W72616   4.300  24.836   1.013  0.1599 -0.2163  0.0904
41401W        W72617   0.401  17.761   8.043  0.2255 -0.0524 -0.2944
41402W        W72618  25.325  15.176   2.489 -0.3882  0.2542  0.2199
41403W        W72619  24.966  25.392   0.441  0.1198 -0.0216  0.1891
41404W        W72620  25.753   0.752   0.407  0.0663 -0.1638  0.2011
41405W        W72621  21.608  12.216   8.232  0.2244 -0.1588 -0.0921
41406W        W72622  20.090  17.839   3.002 -0.0095 -0.1732 -0.1683
41407W        W72623  14.695  20.032   2.938  0.2699  0.1152  0.0876
41408W        W72624  25.476   3.220   0.215 -0.2593 -0.0535  0.1013
41409W        W72625   2.133  24.063   0.263 -0.1710  0.1626  0.1694
41410W        W72626   9.293   7.480   9.787 -0.1049  0.2241 -0.1618
41411W        W72627  26.112   0.911   2.311  0.1634 -0.3451 -0.0359
41412W        W72628   7.613  21.990   9.907  0.0966 -0.0029  0.0021
41413W        W72629  12.662   2.951   9.923  0.1712  0.1358 -0.1831
41414W        W72630  16.236   3.157   7.911 -0.0725 -0.1613  0.1030
41415W        W72631   1.254   4.330   7.991 -0.0012  0.0170 -0.3636
41416W        W72632  15.770  13.107   9.530 -0.1530 -0.0095  0.0673
41417W        W72633  24.690   5.055   0.233  0.3578  0.0894 -0.0005
41418W        W72634  19.548  10.761  10.188 -0.0462  0.0216 -0.1303
41419W        W72635   3.293  26.698   9.980  0.0648  0.2319  0.2567
41420W        W72636  26.641  23.934   9.603  0.4662 -0.0235  0.2217
41421W        W72637  21.643  13.617   0.780  0.3045 -0.2025  0.1722
41422W        W72638  12.763  23.425   8.315  0.1177  0.1349 -0.0867
41423W        W72639  15.297   0.341   9.764  0.1748  0.2024  0.2731
41424W        W72640   7.302   5.464   2.092 -0.0534 -0.1179  0.1684
41425W        W72641  16.698   3.501   7.185 -0.2826 -0.0615 -0.0612
41426W        W72642   4.824   1.067   0.149 -0.3419 -0.2632  0.2135
41427W        W72643   8.126   7.718   0.483  0.0292 -0.2877 -0.1299
41428W        W72644  24.595   4.224   0.787 -0.2474 -0.4961 -0.0795
41429W        W72645  22.259  14.162   8.950  0.1792  0.0077  0.1243
41430W        W72646  13.442   9.834   0.590  0.0852  0.0156 -0.0461
41431W        W72647  17.533   2.602   2.204 -0.3766  0.0267  0.1757
41432W        W72648   8.147   9.905   7.747 -0.1798 -0.2800  0.0536
41433W        W72649  21.979  19.762   8.832  0.0149  0.0176  0.1885
41434W        W72650  10.518  11.842   0.993  0.3465 -0.2632  0.2069
41435W        W72651  17.192   7.547   9.080  0.0549  0.2332  0.2733
41436W        W72652  15.417  20.621   1.794 -0.0960  0.4011  0.0058
41437W        W72653   3.889  20.602   0.937  0.0530  0.1126 -0.0992
41438W        W72654   4.064   5.530   0.072 -0.1320  0.3484 -0.1869
41439W        W72655  24.567  22.599   0.868  0.0456 -0.0977  0.1464
41440W        W72656   4.358  24.508   0.282  0.1447 -0.0500  0.1520
41441W        W72657  20.375  16.302   0.481  0.0913  0.2086 -0.3607
41442W        W72658  14.362  20.451   2.821 -0.1834  0.0981 -0.0879
41443W        W72659   3.840  10.469   2.277 -0.0861 -0.0874 -0.1176
41444W        W72660  16.322  26.210   1.429 -0.0645  0.1782 -0.0304
41445W        W72661   8.757  20.637   8.726 -0.1422 -0.2208 -0.1130
41446W        W72662  25.803   2.295  10.423 -0.0122  0.0284  0.2201
41447W        W72663   8.193   3.434   2.081  0.2532  0.2025 -0.0679
41448W        W72664   3.222   5.692   0.735  0.2798 -0.1315  0.0503
41449W        W72665  19.456  11.550   1.791  0.0495 -0.1901  0.0002
41450W        W72666  17.810   3.611   0.750  0.0094 -0.2062  0.4829
41451W        W72667  11.786   6.945  10.009 -0.2322  0.2271  0.3631
41452W        W72668   8.016  24.535   0.880  0.0549  0.2138  0.1684
41453W        W72669   4.299  10.070   0.455 -0.0608 -0.0581  0.2979
41454W        W72670  24.171  10.164   9.258 -0.2747  0.0527 -0.1442
41455W        W72671   7.948  18.301   0.313 -0.5092  0.0321  0.0030
41456W        W72672   6.138  24.377   1.525 -0.1226 -0.4068 -0.0680
41457W        W72673  19.342   1.596   8.981 -0.0935  0.1590  0.0468
41458W        W72674  17.534   4.988   2.144  0.3011 -0.0041  0.3857
41459W        W72675  16.726  10.696   0.779  0.0085 -0.1147 -0.0508
41460W        W72676   4.668   6.891   2.264 -0.0219  0.0197 -0.1942
41461W        W72677   9.733  24.288   8.925 -0.1533  0.0557 -0.0230
41462W        W72678  18.792  26.761   9.381 -0.1108 -0.1736 -0.1315
41463W        W72679  20.836   6.634   8.856  0.1399 -0.1309  0.1157
41464W        W72680  14.909  24.781   0.687  0.1211 -0.2608  0.3211
41465W        W72681  12.810  25.363   2.827 -0.0765 -0.1254  0.0222
41466W        W72682  24.702   7.070   7.635 -0.2872 -0.1000  0.2046
41467W        W72683   4.078  17.422   7.399 -0.0174 -0.1419  0.0864
41468W        W72684   0.857  10.942   3.410  0.0726 -0.1307  0.2970
41469W        W72685   8.722   0.910   0.571  0.0694 -0.1055  0.1709
41470W        W72686   0.340  15.655   9.220  0.3327 -0.1729  0.2243
41471W        W72687   3.573  24.400   1.184  0.3179  0.2150 -0.0474
41472W        W72688  24.227  22.167  10.024 -0.0557  0.1840  0.2434
41473W        W72689  27.485  23.624   2.090  0.1697 -0.3517  0.2776
41474W        W72690  24.410  21.893  10.377  0.1015  0.1910 -0.1873
41475W        W72691  14.168  17.635   9.188 -0.1216  0.0430 -0.0512
41476W        W72692   7.932  15.467   2.151  0.1672  0.1199  0.1746
41477W        W72693  26.721  11.310   0.059 -0.2066  0.2638  0.0107
41478W        W72694   5.662   9.554   0.499 -0.1145 -0.0139  0.0555
41479W        W72695   5.944  10.351   1.203  0.2145  0.4124 -0.4132
41480W        W72696  24.317  26.071   2.113  0.4000 -0.1526 -0.1949
41481W        W72697  25.681  19.621   0.048  0.2737  0.1758  0.4085
41482W        W72698  26.902  25.241   8.066 -0.0674 -0.0364  0.2350
41483W        W72699   0.885  26.748   7.992  0.0299  0.0927  0.1044
41484W        W72700   7.623   8.102   1.989  0.0040 -0.1521 -0.0824
41485W        W72701   5.712  18.237   0.910 -0.0761 -0.0036  0.0974
41486W        W72702  19.016  17.107   3.558 -0.1059 -0.0360 -0.0765
41487W        W72703  15.384   3.573   1.213 -0.0484  0.0601 -0.0352
41488W        W72704   7.628  10.379   0.464  0.0147  0.1119 -0.1796
41489W        W72705   0.189   3.955   2.310 -0.0307  0.2094  0.3166
41490W        W72706  17.549   3.631   7.622  0.0069 -0.1172 -0.0198
41491W        W72707   8.106  20.013   1.774  0.0518  0.1074 -0.0218
41492W        W72708  18.319  26.738   8.637 -0.3074  0.1688  0.4379
41493W        W72709   6.418   0.325   7.040 -0.1804 -0.2629 -0.0725
41494W        W72710   6.654  21.040   0.705 -0.1670  0.3776  0.1666
41495W        W72711  12.205  22.726   1.830  0.1477  0.0835 -0.2217
41496W        W72712   1.294  22.917   1.454 -0.0392 -0.0748  0.0714
41497W        W72713  18.645   5.610   2.551  0.2141 -0.2395  0.0096
41498W        W72714  24.599  13.866   2.298 -0.1630  0.1567  0.2834
41499W        W72715  23.544  22.726   0.433 -0.0559 -0.0515 -0.1721
41500W        W72716  12.695  14.910   0.905  0.2433  0.4404 -0.2284
41501W        W72717  26.739  10.487   1.962 -0.1904 -0.0064  0.3611
41502W        W72718   1.895   7.962   9.176  0.1789  0.0629  0.3987
41503W        W72719   7.812  18.597   9.019  0.3402 -0.1216 -0.3120
41504W        W72720   1.208  14.596   3.030 -0.0346 -0.1541 -0.4192
41505W        W72721  26.099   2.241   4.095 -0.2273  0.1014  0.0955
41506W        W72722  18.952  23.508   1.664  0.3023  0.0976  0.5063
41507W        W72723  19.110  24.067   2.694 -0.0101 -0.1871 -0.1458
41508W        W72724  10.592  17.196   7.805 -0.0574 -0.2097  0.1261
41509W        W72725   1.591  10.182   8.419  0.1697  0.1082  0.2089
41510W        W72726  13.925   9.286   2.524  0.0785  0.2540 -0.0292
41511W        W72727  13.515   8.764   9.533  0.0887  0.2751 -0.1375
41512W        W72728  23.615   9.669   0.603 -0.4751 -0.1890 -0.2652
41513W        W72729  23.313  23.364   2.298  0.0600  0.0743  0.0593
41514W        W72730  19.449  23.315   2.782 -0.2389  0.1315 -0.2773
41515W        W72731   3.509  25.597   3.975  0.1293  0.1637  0.0021
41516W        W72732  17.554   5.371   9.748 -0.1543 -0.2478 -0.1700
41517W        W72733   5.730   3.326   9.949  0.3054 -0.0049 -0.2444
41518W        W72734   2.301   3.509  10.014 -0.1945  0.0112  0.1447
41519W        W72735  17.093   1.338   2.434  0.1488  0.1186 -0.1655
41520W        W72736   1.358   0.418   8.763  0.0210  0.0581 -0.0434
41521W        W72737  16.906   5.049   8.783 -0.1881 -0.0406 -0.2286
41522W        W72738   4.175  22.627   1.861 -0.0340 -0.2206 -0.0612
41523W        W72739  10.314  26.521   1.504  0.1457 -0.2154  0.3622
41524W        W72740   2.932  25.981   2.212  0.1361  0.1436  0.0321
41525W        W72741  25.840  26.115   2.593 -0.0845 -0.0834 -0.0089
41526W        W72742  20.253  25.746   2.603  0.0709  0.0706 -0.0394
41527W        W72743   7.274  14.299   7.908 -0.1760 -0.2026 -0.0899
41528W        W72744  19.722   4.027   2.953  0.0456 -0.0479  0.2557
41529W        W72745   1.521  21.865   2.622  0.1282  0.2023  0.0784
41530W        W72746  14.425  23.971   3.337 -0.0420  0.1537 -0.1339
41531W        W72747  16.980   4.284   1.032 -0.0550  0.1222  0.2003
41532W        W72748  16.099   9.537   2.614  0.2091  0.0320 -0.0379
41533W        W72749   2.027  23.323  10.051  0.0037 -0.0541 -0.0388
41534W        W72750   8.391   9.922   2.423 -0.2148  0.0335  0.1013
41535W        W72751  14.690   5.008   2.368 -0.1213 -0.1138  0.1158
41536W        W72752  24.456  26.369  10.137 -0.0502 -0.0607 -0.1649
41537W        W72753  21.552  22.779   2.222 -0.2180  0.2120  0.0603
41538W        W72754   0.544  15.447   7.908 -0.0695 -0.0591  0.1531
41539W        W72755  16.548   0.956  10.164  0.0582 -0.3525 -0.1339
41540W        W72756  24.342  18.370   0.117 -0.2583  0.3081  0.1860
41541W        W72757  26.557  10.077   9.454  0.1161  0.1048 -0.0173
41542W        W72758   9.859  11.430   8.060 -0.3814  0.1347  0.1506
41543W        W72759  22.555  22.079   0.718  0.3199 -0.1203  0.0926
41544W        W72760   0.500   7.376   9.001  0.1462  0.0099  0.0368
41545W        W72761  26.375  24.392   7.833  0.0326 -0.1600 -0.0502
41546W        W72762  16.299  18.478   1.610 -0.1003 -0.1159  0.0153
41547W        W72763  25.515  22.284   1.335  0.1907  0.0700 -0.1031
41548W        W72764  16.139  23.155   8.195  0.0590  0.2560  0.3778
41549W        W72765   4.401   9.588   8.324  0.2669  0.0689 -0.1154
41550W        W72766  25.533   1.046   9.599  0.0793  0.0629 -0.1349
41551W        W72767  12.793  24.570   3.123  0.2532  0.1846  0.0143
41552W        W72768  10.142  25.424   0.728  0.0595  0.0216  0.3497
41553W        W72769  19.136   3.668   8.932 -0.0105  0.0402 -0.0044
41554W        W72770  22.625  22.023   9.320 -0.1162  0.3898 -0.0094
41555W        W72771  25.347  23.095   2.712  0.3964 -0.0022 -0.0696
41556W        W72772  18.268  10.589   2.960  0.1533  0.0318  0.0819
41557W        W72773   1.197  24.766   3.670 -0.0938  0.0206  0.0790
41558W        W72774   6.483  13.372   9.792 -0.2439 -0.1202  0.2887
41559W        W72775   5.892  21.109   2.190  0.1094  0.0859 -0.0358
41560W        W72776  15.790   4.317   9.692 -0.0847 -0.1505  0.0843
41561W        W72777  19.650   9.796   8.025 -0.2192 -0.1952 -0.3017
41562W        W72778   3.915  12.619   8.716  0.1180 -0.1205  0.0980
41563W        W72779  16.348  21.579   3.197 -0.1801 -0.0501  0.0581
41564W        W72780  17.276  27.029   0.773 -0.1812  0.3860  0.0369
41565W        W72781   8.773  20.565   0.146  0.0582 -0.2656  0.0063
41566W        W72782   0.816  19.596   8.454 -0.4482  0.0782 -0.2250
41567W        W72783   7.875   8.308   1.012  0.0014  0.0219  0.0581
41568W        W72784  19.409  16.175   3.151 -0.3413 -0.2531  0.0664
41569W        W72785   8.934   5.224   8.585 -0.2544  0.0429 -0.0062
41570W        W72786   0.170   5.427   8.825  0.0381 -0.1224  0.0345
41571W        W72787   5.379  19.784   2.575  0.0990  0.0027  0.2588
41572W        W72788  21.017  25.873   1.837 -0.2914 -0.1254 -0.2215
41573W        W72789  16.810  24.104   7.475  0.1644  0.3403  0.0838
41574W        W72790  18.242  16.238   8.870 -0.2173  0.2044  0.0942
41575W        W72791  11.801  24.914   1.485  0.0585 -0.1481 -0.0663
41576W        W72792  18.146   4.463   8.875 -0.0010  0.3050 -0.1484
41577W        W72793  14.925  13.799   1.391 -0.3096  0.2072 -0.2374
41578W        W72794  25.341   8.130   3.884 -0.4245  0.0031  0.2227
41579W        W72795  15.096  19.507   9.165  0.1003  0.0553 -0.0090
41580W        W72796   6.691  26.015   2.049  0.2081 -0.3098  0.0681
41581W        W72797  17.595   7.203  10.313 -0.1042 -0.1116 -0.0608
41582W        W72798  21.833   4.107   3.231  0.3210 -0.0132  0.0525
41583W        W72799  23.315  17.443   1.853  0.0275  0.0114  0.3126
41584W        W72800  14.108  22.331  10.162 -0.0120 -0.0238  0.1562
41585W        W72801   0.811  22.554   0.656 -0.0058  0.0355  0.0425
41586W        W72802  17.258  13.760   9.992 -0.3310  0.0721 -0.1111
41587W        W72803  12.338   2.216   9.938 -0.1654 -0.1266 -0.0624
41588W        W72804  27.500  20.154   0.972  0.2794  0.2546  0.4089
41589W        W72805  20.623   1.222   9.978 -0.0876  0.0302  0.2453
41590W        W72806  19.094   9.074   8.737 -0.2872  0.2012  0.1835
41591W        W72807   6.082  11.719   2.919 -0.2156 -0.1023 -0.1385
41592W        W72808  16.510  14.055  10.527  0.2477  0.5794  0.0327
41593W        W72809  11.009   5.156   3.500 -0.0677 -0.2948 -0.1935
41594W        W72810  22.018  16.038   1.713 -0.0339 -0.0164  0.0475
41595W        W72811  19.052   2.924   1.363  0.2889  0.2081 -0.0792
41596W        W72812  21.544   9.510   3.017 -0.3208  0.3370  0.2701
41597W        W72813  27.251   2.078  10.502 -0.1114 -0.0413 -0.0130
41598W        W72814   1.291  12.680   0.480  0.1100 -0.2417  0.2162
41599W        W72815  27.321   1.375  10.049 -0.1615 -0.2399 -0.1094
41600W        W72816  20.980  23.496   3.148  0.0317 -0.0811 -0.1444
41601W        W72817  16.519  14.169   8.004  0.0140  0.0354 -0.1487
41602W        W72818  27.581  14.515   8.625  0.1358 -0.3462  0.0517
41603W        W72819  18.401  25.235   2.533 -0.1013  0.1096 -0.0708
41604W        W72820   6.744  24.142   2.726 -0.1695 -0.0181 -0.1982
41605W        W72821  14.661  20.455   0.059  0.0885 -0.2569  0.1753
41606W        W72822   0.030   3.132   3.969  0.3082 -0.0638 -0.0302
41607W        W72823   0.295  12.356   3.574  0.1877 -0.1615  0.3980
41608W        W72824  11.163  17.391   8.549 -0.1986  0.2443  0.0593
41609W        W72825  13.888  10.857   2.624  0.1681  0.0215 -0.0753
41610W        W72826  24.257   4.710   9.244 -0.0118 -0.1308 -0.3467
41611W        W72827   3.271   0.577   0.298 -0.1547 -0.0953 -0.0993
41612W        W72828  10.746   8.851   0.930 -0.0501 -0.1078  0.2643
41613W        W72829  14.857  11.498   1.792  0.1171 -0.0709  0.3972
41614W        W72830  19.103  14.662   8.486 -0.0826 -0.1793 -0.1021
41615W        W72831   8.134   0.512   2.617 -0.0384  0.0590  0.1440
41616W        W72832  24.999  21.732   9.516 -0.0799 -0.1370 -0.1645
41617W        W72833   8.765  15.335   9.922 -0.0210  0.2728 -0.0610
41618W        W72834   0.886  10.411   9.440  0.2657  0.1286 -0.1345
41619W        W72835   4.458   0.077   8.649  0.2149 -0.3092 -0.4847
41620W        W72836  14.131   1.854   9.485  0.0364  0.0685 -0.1874
41621W        W72837   4.922  12.733  10.409  0.2735 -0.1809 -0.0706
41622W        W72838  19.385  13.620   8.988  0.1258  0.0442  0.2832
41623W        W72839  23.288  15.974   7.634 -0.0438  0.1495 -0.2807
41624W        W72840  15.379   5.058   8.491 -0.0785 -0.0336 -0.0754
41625W        W72841   3.246  16.343   8.187 -0.1597  0.0197 -0.3171
41626W        W72842  20.386   1.651   9.734  0.0629 -0.1373 -0.0705
41627W        W72843  10.496  17.009  10.518  0.0180  0.1524  0.0292
41628W        W72844  15.872   3.999   3.434 -0.0233 -0.1233  0.0881
41629W        W72845  12.492  18.205   0.493 -0.2118 -0.2896 -0.2585
41630W        W72846  21.599   5.638   1.750 -0.0803 -0.3233 -0.2001
41631W        W72847  24.008   8.303   3.320  0.2380 -0.0482 -0.1293
41632W        W72848  23.131  20.172   7.738 -0.0766 -0.2252  0.2418
41633W        W72849  14.905  20.980   9.815 -0.0438  0.1313  0.0523
41634W        W72850  26.658  20.518   9.326  0.0086 -0.0020  0.2378
41635W        W72851  21.134   6.475   1.439 -0.1854  0.1367  0.2270
41636W        W72852   1.781  23.244   1.559  0.1272  0.0982 -0.0420
41637W        W72853  11.701  25.451   8.324 -0.0793 -0.2605 -0.0067
41638W        W72854  25.523  17.972   9.218 -0.1868 -0.2075  0.0168
41639W        W72855  19.210  13.814   2.095  0.1925  0.0272 -0.0472
41640W        W72856   3.279  16.939   1.674 -0.0176 -0.2349 -0.0589
41641W        W72857  22.896  13.397   8.130  0.0324  0.1896 -0.0103
41642W        W72858  20.000   7.274   2.011  0.1182  0.1898  0.1775
41643W        W72859   5.666  14.021   0.269 -0.0755 -0.0773 -0.0133
41644W        W72860  12.211  21.203   9.463  0.0348  0.0518 -0.1275
41645W        W72861  26.485  14.732  10.322  0.2814  0.0163 -0.1478
41646W        W72862  18.961   0.700   2.449 -0.1285  0.1168  0.2023
41647W        W72863  16.560  18.434   9.807  0.0487 -0.1029 -0.1138
41648W        W72864  22.208   8.694   1.622 -0.1153  0.0755 -0.0778
41649W        W72865  11.767  27.362   2.226  0.1585  0.0690 -0.3129
41650W        W72866   2.505  24.829   1.759 -0.1018 -0.0551 -0.2790
41651W        W72867  24.464  14.656   1.765  0.4060  0.3143  0.2554
41652W        W72868  22.616  21.113   2.012 -0.0128 -0.0716 -0.4867
41653W        W72869  15.470  15.589   0.887 -0.1460  0.4655 -0.1431
41654W        W72870   8.771  22.511   2.450  0.1763  0.1099 -0.0198
41655W        W72871  16.125  24.637   9.497  0.1206 -0.0717 -0.1730
41656W        W72872  12.037   0.004   0.095  0.0096 -0.0411 -0.1815
41657W        W72873  18.019  22.971   9.187 -0.1414  0.2549  0.1328
41658W        W72874  22.339   7.655   1.205  0.4004 -0.1926  0.3956
41659W        W72875  14.538   5.598   9.924 -0.0456  0.1511  0.0559
41660W        W72876   8.955  13.579   9.375  0.1364  0.2841  0.2375
41661W        W72877   2.192  18.546   0.921  0.0860  0.2599  0.2955
41662W        W72878   1.246  19.523   2.220  0.0604  0.1597 -0.4521
41663W        W72879   8.854  12.942   0.610 -0.0819 -0.0814 -0.1983
41664W        W72880  10.036  10.207   9.281 -0.1635 -0.0962 -0.1373
41665W        W72881   5.426  14.070   1.985  0.0663  0.0681  0.0560
41666W        W72882  24.609  13.491   3.283  0.0021 -0.1990 -0.0622
41667W        W72883  14.881   6.332   8.186  0.1542 -0.2592  0.0400
41668W        W72884   7.278  14.614   0.116 -0.0224 -0.0860  0.0737
41669W        W72885   0.353  14.295   7.581 -0.5472  0.0581  0.0552
41670W        W72886  11.639  10.249   0.138  0.2500  0.1308  0.0261
41671W        W72887  16.108   4.542   8.373 -0.1384  0.2961 -0.0214
41672W        W72888   0.574   5.659   0.638 -0.2729 -0.0358 -0.4079
41673W        W72889  27.070  27.536   9.731 -0.1041  0.0145  0.3832
41674W        W72890  15.690   2.359   1.555  0.1840  0.0157 -0.0503
41675W        W72891  19.233  23.140  10.319 -0.0637  0.2689 -0.2383
41676W        W72892  20.322  14.938   1.017 -0.1646 -0.3395 -0.2562
41677W        W72893  24.559   9.807   9.783 -0.0581 -0.0433 -0.2420
41678W        W72894   1.200  16.103   0.952  0.4932  0.1836 -0.0661
41679W        W72895   1.269   6.321  10.309  0.0499  0.1474 -0.1273
41680W        W72896  13.743  22.574   3.203  0.1322 -0.2031 -0.0552
41681W        W72897   9.368  24.294   9.237 -0.1900 -0.1440 -0.0830
41682W        W72898  27.574  20.288   9.876 -0.3116  0.0404 -0.1511
41683W        W72899  21.494  22.552   1.391  0.3504  0.1205  0.0971
41684W        W72900  17.530  22.585   0.417 -0.1168  0.2428 -0.0528
41685W        W72901  14.596  23.697   2.198 -0.0966 -0.3916  0.1267
41686W        W72902   4.533  25.325   2.324 -0.2289  0.2870  0.0075
41687W        W72903   6.117   3.363   9.511 -0.2686  0.0391  0.0848
41688W        W72904   3.611  19.478   0.191 -0.1373  0.2184 -0.0036
41689W        W72905  24.335  16.058   9.579  0.2722  0.0521 -0.1673
41690W        W72906   2.133   7.715   9.629 -0.2654 -0.3675 -0.2205
41691W        W72907  10.115  23.947   1.727  0.0141 -0.0243  0.0070
41692W        W72908  26.448  12.921   3.376  0.0305 -0.2987 -0.0671
41693W        W72909   2.445   8.035   1.915 -0.2258  0.0623  0.1033
41694W        W72910  19.044  13.364   9.352 -0.0110  0.2007 -0.2166
41695W        W72911  24.438   8.645   0.003 -0.4061 -0.2279  0.1545
41696W        W72912  10.640  11.348   0.952  0.1064 -0.0408 -0.3481
41697W        W72913  26.435  13.185   0.060  0.1591 -0.1025 -0.0964
41698W        W72914   1.791  27.481   2.233  0.5056 -0.3468 -0.2878
41699W        W72915  27.014  27.232   0.013  0.0838 -0.0368  0.2244
41700W        W72916  15.662   1.993   2.808 -0.1394 -0.1097  0.1013
41701W        W72917  11.713  20.698   2.414  0.1047  0.2182 -0.1830
41702W        W72918  12.420   2.395   1.710  0.0899 -0.5021 -0.0760
41703W        W72919   2.681   2.004   3.587  0.0237 -0.1369  0.2222
41704W        W72920  11.711  10.207   1.546  0.1153 -0.1933 -0.1915
41705W        W72921   3.115  20.266   8.887 -0.2971  0.3088 -0.1403
41706W        W72922  19.867  14.614   0.809  0.2251  0.1237 -0.0052
41707W        W72923  25.144  10.735   8.112  0.1039  0.6050 -0.1164
41708W        W72924  19.623   4.941   3.139 -0.1782  0.3246  0.2483
41709W        W72925  24.475  21.369   2.661 -0.1186  0.0190  0.0422
41710W        W72926   2.364   9.312   0.484 -0.0438 -0.3265 -0.4635
41711W        W72927   3.694   0.664   2.681 -0.1074  0.0206  0.0353
41712W        W72928  23.008  26.900  10.218 -0.1889  0.0324 -0.0917
41713W        W72929  14.427  24.118   2.885 -0.0953  0.1331 -0.1949
41714W        W72930  24.637   7.499   8.755 -0.0134 -0.1147 -0.0390
41715W        W72931  15.803   8.182   8.137 -0.0967  0.1178 -0.2533
41716W        W72932  12.920  22.461   3.517  0.0843 -0.1017  0.1516
41717W        W72933  23.393  11.437   1.027  0.0299 -0.3260  0.1043
41718W        W72934  22.068   7.151   1.950  0.2145  0.2656  0.1647
41719W        W72935  15.820   1.255   0.868  0.0885  0.1801  0.0399
41720W        W72936   9.316   6.150   9.535  0.3182 -0.0516  0.1008
41721W        W72937   4.738   8.490   9.200 -0.1278  0.0478 -0.2768
41722W        W72938  15.256  16.383   2.788 -0.0657 -0.0229 -0.0427
41723W        W72939  24.433  13.107   3.541 -0.1410 -0.1655 -0.0433
41724W        W72940  26.955  21.361   7.270 -0.2718 -0.2046  0.0284
41725W        W72941  25.985  11.246  10.048  0.2812  0.4703  0.0462
41726W        W72942  15.753  20.186   1.627 -0.1996 -0.4639  0.2956
41727W        W72943  25.479  18.519   2.351 -0.1730 -0.2012  0.2874
41728W        W72944  25.188  24.185   1.256 -0.1486 -0.0245  0.1035
41729W        W72945   9.099  17.860   0.912  0.2542 -0.0152  0.2071
41730W        W72946   2.853  10.355   8.245 -0.1304  0.0698 -0.1001
41731W        W72947  21.059  11.495   8.495  0.1281 -0.1068  0.2017
41732W        W72948  26.685  24.124   0.083 -0.3393 -0.1093  0.2488
41733W        W72949  17.002  10.311   2.865 -0.0762  0.1423 -0.1320
41734W        W72950  13.934  22.565   9.254 -0.2520  0.0178 -0.1482
41735W        W72951   7.726  15.389   8.136 -0.0115 -0.1583  0.0544
41736W        W72952  16.482  16.632   0.725  0.0069 -0.0274 -0.1542
41737W        W72953   6.679  24.253   3.748 -0.1155  0.0692  0.0114
41738W        W72954  16.487  15.274   9.408 -0.0817 -0.1496  0.2067
41739W        W72955  20.433  26.352   3.250  0.1742  0.2149 -0.2544
41740W        W72956   4.146  21.512   1.508 -0.2744 -0.3061  0.2447
41741W        W72957   6.854   3.352   7.904 -0.0059 -0.1928  0.0842
41742W        W72958   4.848  15.304   8.134  0.1592  0.0389  0.1470
41743W        W72959  25.733  13.721   3.012  0.2656  0.0571 -0.4590
41744W        W72960   4.073   9.696   0.197  0.0387 -0.2039 -0.0715
41745W        W72961   8.853  11.158   9.153 -0.0710  0.2091 -0.0791
41746W        W72962   7.052   8.129   1.373 -0.0460  0.0991 -0.1600
41747W        W72963  10.467   4.804   9.484 -0.1109  0.2276  0.0206
41748W        W72964  17.353   8.782   2.029  0.1947 -0.0661  0.1657
41749W        W72965  20.881   3.035   2.765 -0.0143  0.3720  0.1089
41750W        W72966   3.862   9.546   3.619 -0.0334 -0.0364 -0.3037
41751W        W72967  23.629  24.770   9.718  0.0453  0.2903  0.1912
41752W        W72968  25.471  23.017   2.016 -0.1785 -0.3027  0.3389
41753W        W72969   5.497  18.744   0.262 -0.0847  0.1212 -0.0787
41754W        W72970  14.946  20.668   0.802 -0.1367 -0.1786  0.2507
41755W        W72971   0.474   1.764   0.941 -0.0858  0.1535 -0.3017
41756W        W72972   7.131   9.239   8.266  0.3924 -0.1114  0.0059
41757W        W72973  18.501  13.429   2.691 -0.2718 -0.0416 -0.1809
41758W        W72974   4.856  11.427   1.795  0.0665 -0.3106 -0.1768
41759W        W72975  22.077   2.445   0.751 -0.0664  0.2501  0.0999
41760W        W72976  14.099  13.930   9.946 -0.0714  0.4902  0.0682
41761W        W72977  12.599  24.150   2.992  0.1072 -0.3220 -0.0486
41762W        W72978   4.081  12.884   9.401 -0.0228 -0.2629  0.0914
41763W        W72979   9.755  24.199   2.488  0.0897  0.0230  0.5076
41764W        W72980  20.737   0.093   3.654  0.0210 -0.1601  0.1300
41765W        W72981  12.202  23.637   1.220  0.0449  0.0057  0.1180
41766W        W72982  25.325   5.038  10.172 -0.0685 -0.0241  0.0652
41767W        W72983  18.883   5.603   0.583  0.0213 -0.3260 -0.1059
41768W        W72984  12.853  17.979   2.800 -0.2032  0.2444 -0.0313
41769W        W72985   2.064   4.871   1.094 -0.0099  0.0918  0.0883
41770W        W72986   2.153   7.720   2.189  0.1144 -0.1727 -0.0411
41771W        W72987   4.957  21.165   0.014  0.1401 -0.3462 -0.1972
41772W        W72988  14.985  27.387   0.939  0.1102 -0.1595 -0.3523
41773W        W72989   3.135   3.232   0.063 -0.1153  0.2598 -0.0974
41774W        W72990  26.967  11.159   0.886 -0.3054  0.0049 -0.3022
41775W        W72991   9.606   9.062   9.642 -0.2079  0.1424 -0.1139
41776W        W72992  23.171  15.578   8.354 -0.0782  0.3167  0.3273
41777W        W72993   4.772  13.915   0.795 -0.6206 -0.0161  0.0838
41778W        W72994  16.406  26.837   9.058  0.0397 -0.0756 -0.0374
41779W        W72995   6.866   5.638   1.189  0.0122  0.3668 -0.0477
41780W        W72996  16.754   8.376   7.500  0.0424 -0.0299 -0.0749
41781W        W72997   1.694  16.023   7.989 -0.0343  0.0448  0.1611
41782W        W72998  10.754  20.333   1.975 -0.1255  0.0815  0.0366
41783W        W72999  14.800   0.630   9.589  0.1470 -0.1683  0.0710
41784W        W73000  15.084   2.873   8.866  0.0879  0.3751 -0.0572
41785W        W73001  25.925   5.638   1.978  0.2073  0.0327 -0.2317
41786W        W73002  24.658  23.391   1.498 -0.0802  0.0562 -0.0589
41787W        W73003   6.669  27.159  10.480  0.2212  0.3463  0.0703
41788W        W73004  20.501  12.941   9.903  0.2503  0.1704 -0.0549
41789W        W73005   3.055   9.015  10.478 -0.0482 -0.2781 -0.0684
41790W        W73006  21.771  18.223   9.420  0.2816  0.0844  0.1199
41791W        W73007   4.187  22.966  10.193 -0.1228  0.0299 -0.0800
41792W        W73008   4.592   6.426   0.402 -0.2830  0.1622 -0.0051
41793W        W73009  26.829   9.396   0.282  0.3373  0.0599 -0.1477
41794W        W73010   4.729   9.531  10.090 -0.3271  0.2415 -0.0556
41795W        W73011  14.979   8.825   2.731  0.1751  0.2149 -0.1913
41796W        W73012  16.874  23.860   0.823 -0.4073  0.2634 -0.1786
41797W        W73013   6.138   9.972   0.831 -0.0544  0.1308 -0.0490
41798W        W73014  19.879  13.905   0.448  0.0496 -0.0804  0.0042
41799W        W73015  27.461   8.807   9.230 -0.0469 -0.0176  0.2429
41800W        W73016   7.573  10.727   9.744 -0.3853  0.0136 -0.0087
41801W        W73017  23.411  13.389   9.191  0.0760  0.1751 -0.1398
41802W        W73018   6.572  18.394   9.312 -0.1240  0.0507 -0.2343
41803W        W73019  11.802   9.480   0.006 -0.2366 -0.0278  0.1284
41804W        W73020  24.531  26.638   3.280 -0.0667  0.0816 -0.2377
41805W        W73021   6.774  18.141   1.867  0.1340 -0.0611  0.4300
41806W        W73022   7.331  14.089   1.659 -0.2197 -0.1489 -0.2541
41807W        W73023  18.695  17.879   2.083 -0.1377 -0.1811  0.0858
41808W        W73024  22.738  22.206   2.164  0.3540 -0.1858 -0.0581
41809W        W73025  13.307   3.730   9.314  0.0427  0.3242 -0.0574
41810W        W73026  20.269   3.500   1.578 -0.4246 -0.3057 -0.1459
41811W        W73027  13.416   7.307   8.932  0.1364 -0.1554  0.2539
41812W        W73028  17.782  10.077   1.349  0.3387  0.0347 -0.1976
41813W        W73029  24.878   1.080   0.811  0.3032 -0.0381 -0.0445
41814W        W73030  15.609   6.182   2.387  0.0071  0.1398 -0.0349
41815W        W73031  24.953   6.657   4.185  0.1692  0.0802  0.0349
41816W        W73032  22.856  24.895   1.486 -0.3697 -0.1416 -0.2504
41817W        W73033  25.543  15.253   9.042  0.1356 -0.1350 -0.5122
41818W        W73034  18.019  12.513   8.769  0.3552 -0.0018 -0.0714
41819W        W73035  25.738  17.569   8.326  0.1378  0.1507  0.0239
41820W        W73036   6.244  19.088   9.493  0.1019 -0.2847 -0.0270
41821W        W73037   7.876  17.567   1.353  0.0916  0.2232 -0.2520
41822W        W73038  12.936  24.008   1.692 -0.3325  0.2607  0.0350
41823W        W73039   4.627  12.142   0.152 -0.1426  0.1609 -0.0999
41824W        W73040  12.695  25.382   9.753 -0.0838 -0.1639 -0.0155
41825W        W73041  10.023  21.945   9.497  0.1381 -0.0732  0.0071
41826W        W73042  16.621   4.116   3.725 -0.3350 -0.0517  0.0867
41827W        W73043  25.056   6.462   9.588  0.0554 -0.0444  0.1469
41828W        W73044   9.576  16.946   2.199 -0.0830  0.3048  0.0407
41829W        W73045  24.131  24.349   2.649  0.3600 -0.2741 -0.1400
41830W        W73046  18.645   2.068   7.033  0.1159  0.0142  0.3939
41831W        W73047   7.503   1.748   1.737  0.0657  0.0107  0.1132
41832W        W73048   5.745  25.050   3.206 -0.2851  0.1231 -0.1132
41833W        W73049  21.873   7.158   2.429  0.0030  0.2324  0.2255
41834W        W73050   4.535   6.646   1.861  0.0562  0.1283 -0.1558
41835W        W73051  20.726   4.973   9.669 -0.0229 -0.1270 -0.2253
41836W        W73052  21.456  11.659   8.158  0.0963 -0.2691 -0.2751
41837W        W73053  12.871  23.525   1.928 -0.3050  0.0962 -0.0454
41838W        W73054  16.428  13.122   7.577 -0.0804  0.4558 -0.0584
41839W        W73055  20.741   0.866   7.593  0.0659 -0.1489 -0.1234
41840W        W73056  16.551  17.684   3.618 -0.6261 -0.1475 -0.1697
41841W        W73057   6.052  18.027   8.134  0.0892 -0.1691 -0.4361
41842W        W73058   4.032  11.074   0.020 -0.0002 -0.1926 -0.0377
41843W        W73059   3.287  23.269   3.110  0.1543  0.0266 -0.0246
41844W        W73060  11.003   2.779   0.061 -0.0803  0.2064  0.0012
41845W        W73061  19.970  19.074   1.089 -0.1037  0.2554  0.3471
41846W        W73062   9.406   7.449  10.294  0.1652 -0.2747  0.1815
41847W        W73063  16.718  13.920   0.538 -0.0657  0.1910  0.0029
41848W        W73064   0.139  15.885   1.000  0.0163  0.2371 -0.0333
41849W        W73065   0.583  10.058   8.588  0.2045  0.1188  0.0861
41850W        W73066   1.322  23.872  10.252 -0.0148  0.0292 -0.0065
41851W        W73067  26.305  16.692  10.048 -0.1505 -0.0101  0.0974
41852W        W73068  20.100  20.585   3.592  0.0380  0.2472  0.0958
41853W        W73069  15.918  22.709   2.170 -0.0263 -0.1089  0.1510
41854W        W73070  24.235   7.339   1.896  0.0321  0.0384 -0.0255
41855W        W73071   1.828  23.999   0.685 -0.0817  0.1698  0.1004
41856W        W73072   2.431   0.434   9.904 -0.0016 -0.0279 -0.0972
41857W        W73073   9.826   7.574  10.460 -0.0349  0.1402  0.0733
41858W        W73074  10.717  16.206   9.484  0.3020 -0.1246 -0.0377
41859W        W73075  17.235  14.246   2.910 -0.0797  0.4570 -0.0437
41860W        W73076  10.956  15.789   1.702 -0.1245  0.0708 -0.3494
41861W        W73077  17.682   0.086   1.257  0.0389  0.3042 -0.1407
41862W        W73078   9.698  27.145   2.095  0.0530  0.2685  0.0741
41863W        W73079   6.744   0.518   0.199 -0.1916  0.2186  0.0010
41864W        W73080  21.363  14.361   9.334 -0.1194  0.0638  0.0424
41865W        W73081   0.923  19.666   0.138  0.3283 -0.0901 -0.2623
41866W        W73082  20.439   2.455   1.694 -0.0492 -0.2287 -0.1863
41867W        W73083  11.906  18.541   8.114 -0.2177 -0.0819  0.0137
41868W        W73084  12.701  13.774   1.234  0.1261  0.1782  0.2024
41869W        W73085  23.486   9.347   1.506  0.0994 -0.1019 -0.2182
41870W        W73086  25.099  13.517   0.965  0.1391  0.2864  0.0495
41871W        W73087  23.039   3.183   7.225 -0.0574  0.0352 -0.2435
41872W        W73088  11.965   2.547   1.380 -0.2643 -0.4308  0.0008
41873W        W73089   7.511  24.638   3.835 -0.2742 -0.4108 -0.1899
41874W        W73090   5.221  10.244   0.984 -0.0480  0.5201 -0.2911
41875W        W73091  11.737  11.744  10.228  0.3406 -0.2422 -0.0669
41876W        W73092  21.770   6.124   8.649 -0.1459 -0.3165  0.0365
41877W        W73093  22.131  14.058  10.125  0.1365 -0.0938  0.1135
41878W        W73094   1.268   3.575   9.432  0.0774 -0.0369 -0.0215
41879W        W73095  11.341   1.394   2.317  0.0914  0.2349  0.1964
41880W        W73096  13.183  25.709   2.710  0.0278 -0.1677 -0.2532
41881W        W73097  17.005  13.450   0.436 -0.1636  0.3562 -0.2948
41882W        W73098   8.343  24.132   0.829 -0.2746  0.1551  0.0269
41883W        W73099  27.451  11.148   1.180 -0.1781  0.0868  0.0187
41884W        W73100  23.090  15.937   7.128 -0.0236 -0.1416 -0.1038
41885W        W73101  19.790  16.390   1.525 -0.0201  0.1506  0.0244
41886W        W73102  15.580   3.991   8.093  0.2509 -0.0731 -0.1090
41887W        W73103  23.471   9.429   0.114 -0.0990 -0.3583 -0.0483
41888W        W73104  11.908  16.979   8.789  0.2905  0.0140 -0.4462
41889W        W73105  26.180   1.745   9.712  0.2864  0.0343 -0.1732
41890W        W73106  20.608  22.380   1.145 -0.1124  0.0145 -0.1399
41891W        W73107   6.581  18.941   0.445 -0.0698  0.0003  0.0744
41892W        W73108  16.676   5.862   1.541  0.0113  0.1671 -0.1923
41893W        W73109  12.825  10.076   0.772  0.0439  0.2400  0.1237
41894W        W73110   3.274  17.923   9.960 -0.2441  0.0330  0.0205
41895W        W73111   8.361   8.413   8.465  0.0842 -0.0188 -0.1135
41896W        W73112  10.795  17.768   8.520  0.0754  0.1243 -0.1875
41897W        W73113   0.187  15.510   2.509 -0.0438 -0.3250 -0.1388
41898W        W73114  15.062   2.351   9.056 -0.1006  0.1474  0.1337
41899W        W73115  14.017   7.512  10.333  0.0358  0.4534  0.2125
41900W        W73116  23.194   1.838   8.158  0.0618  0.0130  0.4524
41901W        W73117  25.959  22.035   1.295  0.0174 -0.0139 -0.1484
41902W        W73118  26.522  13.193   1.300 -0.2435 -0.0155 -0.0013
41903W        W73119   1.803  15.142   2.912  0.2171  0.1459 -0.1610
41904W        W73120   5.683  24.454  10.327 -0.0484 -0.0090  0.1953
41905W        W73121  20.269  13.018  10.371 -0.1579 -0.2242 -0.0194
41906W        W73122  10.516  22.646   8.905 -0.2336  0.1069 -0.2096
41907W        W73123  12.531  23.053   1.699  0.2343 -0.1557 -0.2430
41908W        W73124  25.852  24.010   0.205  0.2084  0.0592  0.2934
41909W        W73125  10.337  17.753  10.382 -0.3613  0.3019 -0.1445
41910W        W73126   5.589  17.677   8.132 -0.0445 -0.1302  0.1080
41911W        W73127   0.581  21.996   8.924 -0.1115  0.2439 -0.1739
41912W        W73128   3.266  11.051   7.212  0.1693 -0.0446 -0.3848
41913W        W73129   1.279   5.854   8.749 -0.3350  0.0096 -0.3772
41914W        W73130  25.586  17.519   9.445 -0.0310 -0.1788  0.1995
41915W        W73131  24.997  18.944   8.480 -0.0341  0.0258 -0.4760
41916W        W73132  26.454  10.470   7.507 -0.2118 -0.4431  0.3990
41917W        W73133  23.945  17.230   9.156  0.4981  0.2330  0.3393
41918W        W73134   3.183   4.680   1.200 -0.0060  0.0270 -0.1950
41919W        W73135  11.537  20.229   2.539 -0.5019 -0.2221 -0.0679
41920W        W73136  25.161  25.606   8.923 -0.0013  0.3082 -0.2120
41921W        W73137  19.020   6.474   2.894  0.0736  0.1610  0.2035
41922W        W73138  15.770  21.903   1.023 -0.0247  0.0444  0.5423
41923W        W73139  10.721  25.741   8.726 -0.1973 -0.0540  0.0712
41924W        W73140   1.128   0.729   9.726  0.0438  0.0664 -0.0910
41925W        W73141  21.437  12.957   2.778 -0.0019  0.1924 -0.0175
41926W        W73142   0.356  20.687   8.432  0.1090  0.1206 -0.4391
41927W        W73143   1.126   0.993   8.614 -0.2379 -0.1495  0.0819
41928W        W73144  22.154   0.817   2.650 -0.2793  0.4390  0.0010
41929W        W73145   9.670  22.243   3.417  0.1391 -0.1868  0.1154
41930W        W73146   2.148  16.803   1.352 -0.0537  0.1182 -0.0195
41931W        W73147  27.280  25.722   8.944  0.0180 -0.0870 -0.2709
41932W        W73148   7.309   0.436   7.968 -0.0255  0.1072  0.1201
41933W        W73149  25.467   7.759   2.711  0.0145  0.0545 -0.2014
41934W        W73150  24.051  19.871   8.525 -0.1918  0.3041 -0.0979
41935W        W73151   3.212  21.782   9.884 -0.1748 -0.1388 -0.0083
41936W        W73152  12.731  13.843   2.811 -0.0844  0.0479 -0.2340
41937W        W73153   3.099  15.466   1.727  0.1554 -0.3691 -0.0783
41938W        W73154   3.770  25.183   2.699 -0.0439  0.2374 -0.3320
41939W        W73155  15.600  15.301   1.783  0.0697 -0.2294 -0.1108
41940W        W73156   9.895  25.403   8.931 -0.0044 -0.0196  0.1752
41941W        W73157  15.204   7.549   2.092  0.0841 -0.1983  0.0124
41942W        W73158   2.242   2.750   1.852  0.2925  0.2840  0.0073
41943W        W73159  11.345  12.000   1.985 -0.0533 -0.1362 -0.1943
41944W        W73160   5.944   8.695   8.305  0.0220 -0.0312  0.1083
41945W        W73161  12.329  21.019   1.160  0.0828 -0.1762 -0.2074
41946W        W73162   7.673  24.418   2.692 -0.2205  0.2698  0.3568
41947W        W73163   3.742  26.850   8.676  0.0365 -0.0410 -0.0938
41948W        W73164  16.042   0.132   3.282 -0.2187  0.1205 -0.1682
41949W        W73165  16.371  10.927   9.424  0.0884  0.2833 -0.3495
41950W        W73166  15.459  19.045   9.167  0.1857  0.1593  0.1923
41951W        W73167  20.986  15.654   8.780  0.0661  0.2982 -0.0207
41952W        W73168  19.679  22.547   0.435  0.2059  0.0653 -0.3707
41953W        W73169   8.122  18.818   7.773 -0.0311  0.0527 -0.1211
41954W        W73170  17.208  23.084   0.555  0.0668  0.1588 -0.1617
41955W        W73171   2.787   6.851   1.386 -0.2190  0.3300  0.1597
41956W        W73172  26.338  20.726   8.027 -0.0645  0.1710 -0.1797
41957W        W73173  15.156   8.148   1.091 -0.1476  0.0686  0.4900
41958W        W73174  15.586  23.145   3.242  0.0717  0.1318  0.0498
41959W        W73175  20.167  23.837   2.898  0.0688  0.0034  0.2335
41960W        W73176  15.515  21.846  10.072 -0.1507  0.0903 -0.0493
41961W        W73177  17.364   2.340   3.579 -0.2679 -0.3672  0.1132
41962W        W73178   5.281  20.427  10.219 -0.0976 -0.1594  0.1553
41963W        W73179   2.520  26.799   8.358 -0.1673 -0.1122  0.3081
41964W        W73180  15.129  22.957   9.668  0.1697  0.2786 -0.4639
41965W        W73181   1.637  20.584   3.334 -0.0494 -0.1540 -0.1273
41966W        W73182  19.227  23.377   3.267  0.1267  0.1851 -0.2015
41967W        W73183  12.339   9.447   1.172 -0.1037  0.1471 -0.2295
41968W        W73184  24.134  22.526   9.039 -0.0723  0.0561  0.3166
41969W        W73185   0.477  21.484   3.509  0.2597 -0.0844  0.1501
41970W        W73186  10.464   1.237   3.052 -0.3501 -0.1469  0.2266
41971W        W73187   4.435   2.626   2.976 -0.1392 -0.1286  0.2156
41972W        W73188  18.651   5.650   8.576 -0.0145 -0.1590  0.5316
41973W        W73189  25.178  16.140   8.576 -0.2729  0.2079  0.1620
41974W        W73190   0.003   4.958   7.739  0.2170  0.1352  0.1799
41975W        W73191  21.373   1.317   3.548 -0.1219  0.2536  0.2304
41976W        W73192  15.675  25.937   4.107  0.0028  0.2114 -0.0779
41977W        W73193  13.062  19.534   0.434 -0.0356 -0.1085 -0.0300
41978W        W73194   6.839   7.909   8.142 -0.1852 -0.1457  0.2832
41979W        W73195   8.910  14.945   2.715  0.0209 -0.0294 -0.0063
41980W        W73196  27.556   9.409   8.443  0.2778  0.1189 -0.0372
41981W        W73197  17.502   5.604   7.590  0.1284  0.1396 -0.0028
41982W        W73198   9.196   4.201   1.715 -0.0864 -0.0080  0.1125
41983W        W73199  26.499  25.048   9.504  0.0604  0.0612 -0.1205
41984W        W73200  25.772  21.610   9.075  0.1350  0.0798  0.1400
41985W        W73201  18.298  22.479   2.553 -0.0952  0.0099 -0.1708
41986W        W73202  18.446  22.919   2.286 -0.5034  0.2026  0.0521
41987W        W73203  14.615   3.226  10.219  0.2202 -0.2401  0.1927
41988W        W73204   5.126  24.740   7.576 -0.1506 -0.0343 -0.0703
41989W        W73205  19.147  10.003   9.429 -0.2481  0.0888  0.4142
41990W        W73206  10.814   7.724   0.872  0.0249 -0.1926  0.2381
41991W        W73207  15.706  22.396   0.231 -0.2186  0.1635  0.1400
41992W        W73208   1.852  27.221   8.941  0.2679 -0.3174  0.1370
41993W        W73209   5.063   2.691   2.589 -0.1373 -0.0880  0.0707
41994W        W73210   6.626  20.813   9.738  0.0800 -0.1018 -0.0732
41995W        W73211   6.877  25.949   2.909 -0.0058  0.0061  0.1588
41996W        W73212   1.622   0.942   0.796  0.1237 -0.0035  0.0383
41997W        W73213  13.683  19.933   8.360 -0.0977  0.0022 -0.1530
41998W        W73214   7.764  22.248   8.930 -0.0352  0.3400  0.1072
41999W        W73215   1.385  13.556   9.212 -0.3785 -0.1465  0.0436
42000W        W73216   6.535   8.456   9.710 -0.2156  0.3538 -0.1708
42001W        W73217   9.301  25.462   0.331 -0.1253 -0.1856 -0.0623
42002W        W73218  18.733  15.822   0.113  0.1614  0.2499  0.0078
42003W        W73219   1.110  25.087   1.759  0.2544  0.1909  0.1346
42004W        W73220  18.507  21.999   0.078 -0.0151 -0.2842  0.2554
42005W        W73221  20.038   2.183   8.630  0.0457 -0.1166  0.0383
42006W        W73222  18.240  10.625   8.195 -0.2119 -0.2192  0.1929
42007W        W73223   4.942  22.058   1.152 -0.0459  0.2455  0.0538
42008W        W73224  16.122  25.561   0.303  0.1124  0.0532 -0.2733
42009W        W73225  10.325  25.685   0.351 -0.0196 -0.2142  0.3882
42010W        W73226  19.556   8.880   0.079 -0.3553  0.0944 -0.2781
42011W        W73227   8.951   9.812   1.639  0.0000  0.2957 -0.1772
42012W        W73228   7.100   5.065   2.413 -0.2052 -0.1047  0.4470
42013W        W73229  21.653   9.555   0.210 -0.0102  0.1189 -0.3266
42014W        W73230  16.776   2.123   2.508  0.0337 -0.1926  0.0671
42015W        W73231  26.537  14.493   2.545 -0.2433 -0.1019 -0.1664
42016W        W73232  14.485   1.851   0.196  0.2532  0.0250 -0.1462
42017W        W73233  20.667  18.249   1.226  0.4147 -0.3121 -0.1201
42018W        W73234   6.127  21.855   8.189  0.0856 -0.0512 -0.2365
42019W        W73235  12.223   7.540   0.686  0.1141 -0.0306 -0.0665
42020W        W73236  25.495  20.515   8.524 -0.1808  0.1031 -0.0340
42021W        W73237  12.602  11.652   9.944 -0.2446  0.3998 -0.0590
42022W        W73238  16.169  18.400   3.080 -0.0150 -0.0716 -0.2337
42023W        W73239  15.303   6.082  10.062 -0.0698  0.2499 -0.0863
42024W        W73240   2.991  13.695   0.337 -0.0535 -0.1896 -0.0528
42025W        W73241   7.959  13.241  10.385 -0.1687 -0.2153  0.5496
42026W        W73242  23.888  22.641  10.118 -0.4479 -0.0630  0.0752
42027W        W73243  17.390   7.839   2.578  0.0051 -0.0937 -0.0628
42028W        W73244   9.299   0.365   0.986  0.1409 -0.2025  0.2148
42029W        W73245  17.160  16.996   0.305 -0.1528 -0.0730  0.1350
42030W        W73246  12.107  11.808   9.430  0.0719 -0.2361 -0.2454
42031W        W73247   4.291  18.216   7.914 -0.0007 -0.0886 -0.2378
42032W        W73248   2.231   3.200   0.449  0.2835 -0.3765  0.2029
42033W        W73249  16.239  23.007   7.282 -0.0223  0.0529 -0.2018
42034W        W73250  10.393  27.320   9.366 -0.1011  0.1961 -0.1171
42035W        W73251   3.717  17.548   3.185  0.2570  0.1456  0.0141
42036W        W73252  21.925   8.308   0.378 -0.2406  0.3216 -0.1298
42037W        W73253  22.033  27.127  10.087  0.0183  0.0432 -0.0159
42038W        W73254  21.691  17.886   8.143  0.1100 -0.2214 -0.0975
42039W        W73255   0.639  17.372   8.234  0.0392  0.0732  0.0552
42040W        W73256  23.951  27.485  10.264 -0.1799  0.1293 -0.0326
42041W        W73257  25.303  20.720   1.631 -0.2028 -0.1425  0.0294
42042W        W73258  10.408   2.113   2.654  0.3305 -0.0448 -0.2941
42043W        W73259  13.729  24.515   0.945  0.1970  0.0395  0.0142
42044W        W73260   1.259  20.189   0.052  0.0953  0.1052  0.4116
42045W        W73261  20.364   1.339   8.936  0.0300  0.1637 -0.0314
42046W        W73262  22.061  26.908   0.103 -0.0481  0.1799  0.0144
42047W        W73263   8.959  25.877   0.258  0.0633  0.0805 -0.0142
42048W        W73264  11.970  11.026   0.791  0.2994  0.0539 -0.0214
42049W        W73265   1.404  16.999   0.611  0.1058 -0.4194 -0.1450
42050W        W73266  17.735   2.139   9.802 -0.0689 -0.0229 -0.2253
42051W        W73267  13.327   9.307   2.486 -0.0690 -0.0574  0.4327
42052W        W73268  11.965  23.385   3.555 -0.0215 -0.0479 -0.4323
42053W        W73269   6.457   0.660   0.684  0.4010 -0.1965  0.0545
42054W        W73270  21.282  23.120   3.080  0.2762  0.0767  0.0523
42055W        W73271   6.717   5.893   1.775  0.4141 -0.1707  0.1217
42056W        W73272  24.473  25.687   7.790 -0.2324 -0.2685  0.0175
42057W        W73273  12.400  26.756   0.476 -0.2232 -0.1443  0.1182
42058W        W73274   9.566  10.926   9.715 -0.2027  0.1150 -0.0668
42059W        W73275   8.849  12.749   7.902  0.2509  0.0701 -0.1727
42060W        W73276   3.113  17.300  10.050 -0.1356 -0.0342  0.0509
42061W        W73277  27.621  26.117   9.677  0.0344 -0.0761 -0.0398
42062W        W73278  13.507  25.127   0.964  0.0734 -0.1259  0.3335
42063W        W73279  15.632  15.689   1.344  0.2782  0.1974 -0.2837
42064W        W73280  23.976   1.086   1.555  0.0450 -0.0238  0.4127
42065W        W73281   6.062   5.293   8.263 -0.0879 -0.0005  0.0596
42066W        W73282   0.657  19.291   0.065  0.0023  0.0928  0.3889
42067W        W73283   3.318   1.401   1.995 -0.1754 -0.2684 -0.0207
42068W        W73284  12.078  17.402  10.525 -0.0143  0.0775 -0.0911
42069W        W73285   7.720  24.161   1.024  0.1132 -0.0075 -0.0768
42070W        W73286  25.605  12.272   9.060 -0.0834  0.0198 -0.0613
42071W        W73287  16.494   5.265   0.719  0.0454  0.3653 -0.3948
42072W        W73288   1.759  25.540   1.555 -0.1405 -0.0609 -0.1248
42073W        W73289  12.165  16.506   8.713  0.2787  0.1356 -0.1165
42074W        W73290   3.587   3.133   1.598  0.1589 -0.0178  0.0247
42075W        W73291  21.835  11.241   2.224 -0.0438  0.2327  0.2977
42076W        W73292   4.290   2.354   9.509  0.0123 -0.1549  0.0890
42077W        W73293  19.729  16.206   9.255  0.0188 -0.1412 -0.0960
42078W        W73294  19.073  27.223   8.879  0.1780  0.0019  0.3110
42079W        W73295   1.037  16.414   0.165 -0.0915 -0.4357 -0.1194
42080W        W73296   4.143   8.292   7.258 -0.0804 -0.0786  0.0318
42081W        W73297  27.444  18.458   9.416 -0.1459 -0.1506  0.2711
42082W        W73298   5.558   6.354   1.804 -0.1057 -0.2486 -0.0503
42083W        W73299   7.250  22.130   3.366  0.0637 -0.2550 -0.0088
42084W        W73300  21.167  12.917   8.224  0.1957 -0.0331 -0.1225
42085W        W73301  19.304  21.588   1.492 -0.0276  0.2397  0.1144
42086W        W73302  25.101   7.972  10.350 -0.2415  0.1021  0.0343
42087W        W73303  25.443  27.124  10.379  0.0430  0.1182 -0.0781
42088W        W73304  19.616  21.683   2.463 -0.1001  0.1261  0.0511
42089W        W73305  26.942  10.875   0.425  0.0494 -0.0472  0.0917
42090W        W73306   4.250  21.983   9.716 -0.1037  0.1996  0.0437
42091W        W73307  14.826  19.707   8.818 -0.1535 -0.3374 -0.2381
42092W        W73308  11.791  19.854  10.176 -0.0334  0.0480  0.1007
42093W        W73309  23.898  22.660   0.043 -0.0479  0.1244 -0.1014
42094W        W73310   0.704   8.696   9.837  0.2018  0.0589 -0.1563
42095W        W73311  26.865  16.986   2.300 -0.0098 -0.2386 -0.2893
42096W        W73312  14.694   3.451   8.222  0.0299  0.0964  0.0098
42097W        W73313  10.648   0.431   2.847 -0.0056 -0.2833  0.0314
42098W        W73314  21.134  18.078   2.495  0.2111  0.0533  0.1597
42099W        W73315  18.153  22.612   1.214  0.2225 -0.4087 -0.1704
42100W        W73316  13.876  18.813   1.664  0.2365  0.0241  0.0358
42101W        W73317  17.170  22.432   1.828  0.4874 -0.1732 -0.1032
42102W        W73318  24.125  13.867   0.711  0.0993  0.1321 -0.4186
42103W        W73319  22.221  27.138   8.308  0.1963  0.1757  0.0023
42104W        W73320   2.280   8.403   8.436 -0.3299 -0.4628 -0.0182
42105W        W73321   5.195   3.604   3.563 -0.3651  0.1660 -0.1929
42106W        W73322  21.789   8.698   0.128  0.0507  0.1633  0.3784
42107W        W73323  23.662   8.052   9.012  0.2471  0.1320 -0.1983
42108W        W73324   1.152  26.077   0.045 -0.0532 -0.0906 -0.1295
42109W        W73325  13.022   9.769  10.448  0.2363  0.1421 -0.3629
42110W        W73326  12.675  22.094   2.671 -0.1386  0.4259  0.0390
42111W        W73327  16.409  15.577   0.531 -0.2428  0.0633  0.4036
42112W        W73328  16.084  18.990   9.160 -0.0866  0.0454 -0.0138
42113W        W73329  15.630  21.766   9.499  0.0563 -0.3865  0.2581
42114W        W73330  18.462  15.815   9.021  0.0221 -0.0464 -0.2071
42115W        W73331  18.403   4.658   7.564  0.0147 -0.2598 -0.4966
42116W        W73332  25.554   6.787   0.515 -0.0863  0.0650  0.2783
42117W        W73333   1.624  11.792   1.637 -0.0239  0.2141 -0.2462
42118W        W73334   5.076  21.296   3.137 -0.1481 -0.0092  0.1335
42119W        W73335   3.991   0.265   1.184 -0.0903  0.0781  0.2493
42120W        W73336  16.542  21.508   1.363  0.1086 -0.1489  0.1623
42121W        W73337  23.983   2.699  10.014  0.1441  0.2294 -0.3908
42122W        W73338  10.134  19.065   0.061  0.1182  0.1573  0.1431
42123W        W73339   2.590   2.240   0.431 -0.0179  0.0362 -0.2797
42124W        W73340   2.828   4.901   0.785  0.0604  0.0607 -0.2476
42125W        W73341  14.305  25.714   0.754 -0.2490 -0.3454  0.0556
42126W        W73342   8.890   0.393   0.706  0.1606  0.1870  0.0614
42127W        W73343   1.064  13.201   3.133  0.0919 -0.2693  0.0492
42128W        W73344  13.489  15.331   2.606 -0.1101 -0.0265  0.0965
42129W        W73345  20.534  26.657   9.830  0.1488 -0.1502  0.3525
42130W        W73346  22.949  14.710  10.225 -0.2855  0.2198  0.2785
42131W        W73347   0.031   6.169   2.019  0.3253 -0.1748  0.2232
42132W        W73348  22.323  26.801   6.816  0.1314  0.1820 -0.2112
42133W        W73349  19.360   1.785   8.532  0.1860  0.1799  0.2544
42134W        W73350  26.279  18.568   8.416 -0.2597  0.1333  0.0051
42135W        W73351   6.399  10.426   0.938 -0.0016  0.2419  0.0882
42136W        W73352   8.604   1.631   1.031 -0.1190  0.0013 -0.0270
42137W        W73353   8.625  26.316  10.107  0.0908 -0.0304  0.0276
42138W        W73354  10.357   9.771   2.230  0.1597 -0.0396 -0.2612
42139W        W73355  27.316   5.667   0.869  0.3583 -0.2122 -0.1254
42140W        W73356  13.620  16.479   9.337  0.0724 -0.0030  0.1323
42141W        W73357  21.801  16.578  10.466  0.1189  0.1150 -0.0129
42142W        W73358  24.924  23.399   0.737  0.0316  0.1190 -0.0187
42143W        W73359  23.981  10.505   9.936  0.1532  0.0587 -0.4219
42144W        W73360  17.041  25.822   0.242 -0.1454 -0.0667  0.0978
42145W        W73361  12.160  24.158   1.147 -0.1255 -0.1519 -0.1279
42146W        W73362  20.217   7.906   9.870 -0.2573  0.3194 -0.0820
42147W        W73363   8.533  13.617   1.467 -0.0554  0.0104 -0.0883
42148W        W73364   4.308  19.938   9.733  0.0244 -0.0674  0.3055
42149W        W73365  25.033   6.188   1.811 -0.2230 -0.0170  0.1277
42150W        W73366   4.345  23.053   8.314 -0.1298 -0.3671 -0.1427
42151W        W73367   9.970  17.864   9.927  0.0094  0.1238  0.1419
42152W        W73368  27.523  18.901  10.021 -0.0990  0.2553 -0.1041
42153W        W73369   6.556   3.736   9.657 -0.0943 -0.0272 -0.1483
42154W        W73370  26.290   4.200  10.419  0.0366  0.0208 -0.3298
42155W        W73371   1.001  19.113   3.536  0.2095  0.1345  0.0401
42156W        W73372  17.317   2.720   1.148  0.1960  0.2598 -0.1116
42157W        W73373   3.397   7.923   2.032  0.0847 -0.0384 -0.2623
42158W        W73374  11.532  10.961   7.376  0.0380  0.1152 -0.1078
42159W        W73375  20.542  10.521   1.330  0.0660 -0.0601 -0.2582
42160W        W73376  13.060  16.307   7.845 -0.0978  0.0043 -0.0443
42161W        W73377   9.568   9.582   7.857 -0.0423 -0.0399 -0.1125
42162W        W73378   3.427  16.693   8.771 -0.1149 -0.1139 -0.1836
42163W        W73379   3.859  18.135   8.105  0.0885 -0.1507 -0.0856
42164W        W73380   9.033  14.273   7.903  0.0294  0.0903 -0.0847
42165W        W73381  16.072   4.642   9.970 -0.3347  0.2280 -0.0276
42166W        W73382  16.832   8.258   8.441  0.3343 -0.0909  0.0617
42167W        W73383  17.181  23.766   7.807  0.1149 -0.2685 -0.1265
42168W        W73384  18.783   7.967  10.524  0.0019 -0.0341 -0.2607
42169W        W73385   4.525  24.425   8.254  0.0830 -0.1858 -0.1192
42170W        W73386   1.270  11.289   8.638 -0.0991  0.1149  0.2176
42171W        W73387  17.837  20.316   0.690  0.0688  0.1795  0.0848
42172W        W73388  16.663  21.540   3.618 -0.0723 -0.0840  0.1903
42173W        W73389  16.969   0.558   0.785 -0.1258 -0.0273  0.1584
42174W        W73390  26.545  18.135   8.422 -0.1632  0.0801 -0.5526
42175W        W73391  10.442  20.892   0.873  0.1142  0.0484 -0.1518
42176W        W73392  10.984   0.310   3.782  0.2370 -0.0532 -0.1656
42177W        W73393  19.193  20.488   7.593  0.3203 -0.1485  0.0369
42178W        W73394  25.472  10.814   9.115  0.0423 -0.2414 -0.0613
42179W        W73395  12.410  19.966   0.197 -0.0750 -0.0799  0.0751
42180W        W73396   4.384  16.850   0.901  0.0757  0.0099 -0.0616
42181W        W73397  14.728   2.704   2.355  0.0076 -0.0081 -0.0271
42182W        W73398  24.070  16.811  10.137 -0.3531 -0.0284 -0.4426
42183W        W73399  23.133  26.112  10.089  0.3010 -0.1750  0.0496
42184W        W73400   8.348   7.191   7.903 -0.3780  0.1997  0.1808
42185W        W73401  12.215  19.828   9.857 -0.1306 -0.3376  0.0177
42186W        W73402  11.837  21.199   9.091  0.0185 -0.1484  0.0041
42187W        W73403   7.029   5.001  10.194  0.1193 -0.1423 -0.3906
42188W        W73404  27.516  22.627   0.094  0.0383  0.0306  0.1457
42189W        W73405  20.149  23.619   8.763  0.0020  0.3156  0.0693
42190W        W73406   0.466   4.819   1.630  0.3439  0.2440 -0.1288
42191W        W73407   9.001   3.780   8.758 -0.0283 -0.0234 -0.0885
42192W        W73408  18.825  22.696   8.754 -0.0002  0.1349  0.2319
42193W        W73409  24.102  24.681   9.420 -0.1697  0.0546 -0.1291
42194W        W73410  23.028   0.172   3.258  0.0616 -0.1153  0.3080
42195W        W73411  17.293  19.132   2.344 -0.2121  0.0183  0.1077
42196W        W73412  19.521   8.662   8.839 -0.1541 -0.0467  0.1193
42197W        W73413  14.693  22.864  10.525  0.0860 -0.1954  0.0890
42198W        W73414  10.833  13.402   0.057 -0.3345  0.1416  0.4073
42199W        W73415  17.619  11.762  10.299 -0.1200  0.2988  0.2383
42200W        W73416   3.626  15.923   8.124 -0.1257 -0.0371 -0.0562
42201W        W73417  10.853   5.839   8.129  0.0668 -0.0281  0.1312
42202W        W73418  27.198  19.357   2.730  0.1892  0.0172  0.3548
42203W        W73419   8.268   8.946   0.247 -0.0139  0.3673  0.2718
42204W        W73420   0.183  17.632   0.372 -0.3382 -0.1751  0.0557
42205W        W73421   2.297  22.364   7.738 -0.2209 -0.2326  0.1635
42206W        W73422   0.891  26.369   2.213 -0.4080  0.1241  0.0162
42207W        W73423   9.200  17.410   0.028  0.0096 -0.1251 -0.2732
42208W        W73424  11.499   6.419   9.512  0.2913 -0.0923 -0.3152
42209W        W73425   6.019  14.445   2.798  0.1330 -0.2324  0.2105
42210W        W73426  19.928  16.177   8.685  0.0427 -0.3681 -0.0044
42211W        W73427  10.257  10.186   0.907  0.0861  0.2736  0.0598
42212W        W73428  18.954  26.439  10.223 -0.3703  0.0326  0.1524
42213W        W73429  11.077  25.652   0.417  0.1267  0.1818 -0.0362
42214W        W73430   5.644   9.313   1.540 -0.1185  0.2047 -0.0773
42215W        W73431   0.966   1.543  10.355 -0.0190  0.1194  0.0872
42216W        W73432   5.316   6.095   8.337 -0.3535 -0.2449  0.0594
42217W        W73433  14.446  19.369   0.539 -0.1774  0.2231 -0.2026
42218W        W73434  16.941   3.015   1.039 -0.3341  0.1471  0.0256
42219W        W73435  18.239  13.227   1.343  0.1193  0.2027 -0.1679
42220W        W73436  19.183  21.815   3.601 -0.2330 -0.0259 -0.0366
42221W        W73437  22.621  26.465   8.558  0.1626  0.2608 -0.1915
42222W        W73438   9.013   1.491   1.259  0.0129 -0.2734  0.1020
42223W        W73439   7.529  11.947   9.414  0.3487 -0.0571 -0.0405
42224W        W73440   7.276  26.708   8.266 -0.0130 -0.2542  0.1875
42225W        W73441  25.184  25.523   8.444  0.3788  0.0614  0.2746
42226W        W73442  15.870  20.294   7.452 -0.1427  0.1801 -0.2890
42227W        W73443   8.507  10.808   2.482 -0.1041 -0.1969  0.4230
42228W        W73444   0.128   1.688   3.790  0.0365 -0.2132 -0.1765
42229W        W73445  19.158  27.602   8.612  0.1232  0.2330 -0.1650
42230W        W73446  20.419  24.416   9.760  0.3481  0.1897 -0.0421
42231W        W73447  25.733  25.611   0.091 -0.0611  0.1673  0.0704
42232W        W73448   9.638  18.260   8.914 -0.1238  0.0466  0.0289
42233W        W73449  15.164   2.738   1.617 -0.0300  0.0934 -0.3593
42234W        W73450   9.350  25.230   9.096  0.0818 -0.2229 -0.1600
42235W        W73451  17.223   6.411   9.868  0.0296  0.1309  0.2532
42236W        W73452   7.612  12.658   8.181 -0.3353 -0.0167 -0.2100
42237W        W73453   4.512   9.769   7.689  0.2403 -0.0823  0.0314
42238W        W73454   6.433  23.035   1.910  0.2309  0.2031  0.2530
42239W        W73455   9.143   7.209   0.654 -0.0406  0.0104 -0.0414
42240W        W73456  26.622   1.467   0.339 -0.0420 -0.0520  0.0398
42241W        W73457   5.592  16.994   8.650  0.0161  0.2118  0.3624
42242W        W73458   1.806  17.323   8.815  0.0181  0.3633 -0.0755
42243W        W73459  15.177  14.540   7.370 -0.1935 -0.1405  0.2498
42244W        W73460  23.490  25.120  10.173  0.0830  0.2080 -0.3238
42245W        W73461   7.744  11.608   9.163  0.0261  0.1472 -0.0559
42246W        W73462  21.647  18.953   8.206  0.1173  0.1828  0.2041
42247W        W73463   4.322   9.768   1.026  0.2375  0.1174  0.1617
42248W        W73464  18.019  22.563  10.110  0.0061  0.3004 -0.0564
42249W        W73465  21.830  24.193   3.474  0.1242 -0.1495  0.1140
42250W        W73466  24.643  13.824   8.802  0.1569 -0.2013  0.1477
42251W        W73467   2.611   1.038   9.906  0.2569 -0.0524  0.2051
42252W        W73468   9.244   5.393   9.236 -0.2136  0.0083 -0.0470
42253W        W73469   9.393  12.555   8.029 -0.1804  0.0196 -0.0289
42254W        W73470   0.753  16.384  10.298  0.3339  0.0252 -0.2618
42255W        W73471  21.292   8.720  10.474 -0.0152  0.0155  0.1261
42256W        W73472  13.468  13.038   8.726 -0.2563 -0.0813 -0.0133
42257W        W73473  12.232   2.887   9.187  0.1344  0.2409 -0.6176
42258W        W73474  22.091  16.007   0.522 -0.0190  0.0328 -0.1362
42259W        W73475   1.785  13.563   9.507 -0.2283  0.1809 -0.1370
42260W        W73476  10.775   4.367   2.186  0.1378 -0.3535 -0.1848
42261W        W73477   3.972   8.151   9.030 -0.2585 -0.1482  0.1645
42262W        W73478   2.843  20.720   8.974  0.0825 -0.2164  0.2264
42263W        W73479  16.150   0.197   0.253  0.0794 -0.1664 -0.1636
42264W        W73480   5.982  15.257   1.203 -0.0652  0.0879  0.0537
42265W        W73481   5.702   5.351   7.915 -0.0475 -0.0073  0.1354
42266W        W73482  22.298   7.543   3.246  0.0642 -0.1708  0.1443
42267W        W73483   4.322  22.484  10.522 -0.1145  0.0766  0.2165
42268W        W73484  17.616   3.224   8.684  0.1674  0.1527 -0.0001
42269W        W73485  16.497  25.471   4.161 -0.1518  0.0462 -0.0690
42270W        W73486  20.349  18.282   7.617 -0.0477  0.2491 -0.0115
42271W        W73487  21.548  20.849   2.097  0.1037 -0.1650  0.0592
42272W        W73488  22.213   7.307   2.831 -0.0353 -0.1472  0.2470
42273W        W73489  22.904  19.644   7.662 -0.2100 -0.1236  0.0506
42274W        W73490  20.549   0.859   2.203  0.1174  0.0086 -0.0086
42275W        W73491  22.873  14.122   0.312 -0.2930 -0.0289 -0.3580
42276W        W73492   2.443  18.344   9.581 -0.1762 -0.1537 -0.0302
42277W        W73493   1.593  15.021   1.452 -0.0795 -0.1070 -0.1459
42278W        W73494  17.584   0.167  10.501 -0.0310 -0.1487 -0.2105
42279W        W73495  21.415  18.992   0.812  0.0861 -0.2545  0.0995
42280W        W73496   6.274  26.162   1.824 -0.1749 -0.0783  0.3809
42281W        W73497   0.769  11.907   2.135  0.2498  0.1529  0.1243
42282W        W73498   3.394   9.450  10.044  0.0169 -0.2030  0.0511
42283W        W73499  17.315   8.166  10.323 -0.0295  0.3023  0.2331
42284W        W73500  17.940   3.128   8.188  0.3001 -0.1648 -0.3003
42285W        W73501  12.199  25.203   3.806 -0.0982  0.4499  0.0110
42286W        W73502  24.063  10.015  10.273  0.0645 -0.1010  0.2381
42287W        W73503  15.607   8.431  10.529  0.2578 -0.1078  0.0914
42288W        W73504  23.701  20.337   8.773  0.2472  0.1832 -0.0418
42289W        W73505  17.283  21.195   3.842  0.0181 -0.1060  0.0177
42290W        W73506   4.997  12.307   1.113  0.2558 -0.2590  0.3268
42291W        W73507  20.459  18.990   0.778 -0.0643 -0.3110 -0.1252
42292W        W73508  20.131   8.954   0.676 -0.0340  0.0006  0.0510
42293W        W73509  25.709  16.070   1.848  0.1940  0.1346 -0.1280
42294W        W73510   5.880  27.211   0.337  0.1615  0.1302  0.3473
42295W        W73511  17.913   0.519   0.220 -0.3566  0.2725  0.0486
42296W        W73512  10.909  27.386   3.796  0.1928 -0.1787 -0.0019
42297W        W73513  11.191   0.185   9.413 -0.1132 -0.0166  0.0545
42298W        W73514  11.562  11.088   8.758 -0.1214  0.1518 -0.2628
42299W        W73515   5.540   2.265   0.194  0.4107 -0.1326  0.0965
42300W        W73516  20.944  10.312   1.584  0.1164  0.2559  0.0037
42301W        W73517  17.882  20.346   2.797 -0.2424 -0.1452 -0.2886
42302W        W73518  15.074  19.570   2.353 -0.2278 -0.1370  0.0244
42303W        W73519  22.824   0.142   7.489 -0.0004 -0.1403 -0.0620
42304W        W73520   9.088   7.240   1.583  0.0258 -0.0248 -0.1274
42305W        W73521  20.274   4.873   7.165 -0.1148  0.1070  0.2468
42306W        W73522  16.049   0.297   8.584  0.2676 -0.0779  0.3025
42307W        W73523  11.270   3.181   7.842  0.0042  0.1812  0.0368
42308W        W73524   2.156   5.401   2.761  0.2264 -0.1059 -0.3312
42309W        W73525  21.264   8.234  10.140 -0.1177 -0.1789 -0.1618
42310W        W73526  24.634   8.144   9.506  0.1172 -0.3652 -0.1766
42311W        W73527  16.450  18.803   1.301 -0.1370  0.0534 -0.1792
42312W        W73528  24.273  15.221   8.190  0.2263  0.0293  0.0012
42313W        W73529   6.950   4.051   7.594 -0.3597 -0.1177 -0.1964
42314W        W73530  14.803   9.593   1.365 -0.0576 -0.0125 -0.0307
42315W        W73531   3.270  22.878   0.016 -0.3570  0.2856  0.3123
42316W        W73532  18.050  22.381   1.680 -0.0517 -0.0874  0.1455
42317W        W73533  27.293  10.475   1.475 -0.0432 -0.1044  0.1554
42318W        W73534  23.848   5.010   0.120  0.1010 -0.0797 -0.1132
42319W        W73535  19.038  26.876   9.960  0.1588 -0.0047  0.2627
42320W        W73536  12.360  22.321   8.671 -0.0376  0.4102 -0.7502
42321W        W73537   8.568  10.280   2.163 -0.1005  0.1605 -0.1570
42322W        W73538  12.482  20.435   9.343 -0.1910  0.0691  0.0783
42323W        W73539   4.244  12.125   8.647 -0.0480 -0.3696 -0.0268
42324W        W73540  18.368  13.013   2.989  0.1432  0.1295  0.0243
42325W        W73541  18.074  20.358   3.991 -0.0603 -0.0613  0.1046
42326W        W73542  20.733   8.791   7.824 -0.0799  0.1081  0.1192
42327W        W73543  18.700  24.084   2.364  0.0239 -0.0841  0.5763
42328W        W73544  20.131  26.891  10.329 -0.3193 -0.0924  0.1032
42329W        W73545  16.796   9.295   7.827 -0.0551  0.0797  0.1152
42330W        W73546  15.343  21.915   8.698 -0.2326  0.0958 -0.4501
42331W        W73547  15.549   3.164   8.097  0.1231 -0.1181  0.0629
42332W        W73548   4.529  26.739   0.084  0.2734  0.3446  0.1164
42333W        W73549   1.591   3.858   2.429  0.0511  0.1300  0.1133
42334W        W73550   9.530   2.091   9.129 -0.1017  0.2746 -0.0220
42335W        W73551   7.781  11.829   8.193 -0.0177  0.0550 -0.0323
42336W        W73552  26.038  26.241   0.859 -0.0185  0.3483 -0.1699
42337W        W73553  21.647  22.232   9.447 -0.1227 -0.0424  0.0107
42338W        W73554   4.475  13.133   9.183  0.1291 -0.1103 -0.3279
42339W        W73555  22.418  20.920   9.679 -0.1896 -0.2429  0.1022
42340W        W73556  21.982  12.945  10.095  0.1217  0.0774 -0.0188
42341W        W73557  25.669  21.213  10.079 -0.0504  0.0290 -0.1716
42342W        W73558   7.168   4.197   0.821  0.1106 -0.3644 -0.0472
42343W        W73559  21.196  16.747   1.870  0.1083  0.3493 -0.0670
42344W        W73560   6.952   9.395   9.630  0.0733  0.3429 -0.0196
42345W        W73561  12.044  10.761  10.122 -0.1220 -0.3709  0.0413
42346W        W73562  26.514  24.993   0.342 -0.1932  0.0443 -0.1012
42347W        W73563  27.315  23.333  10.349 -0.2772  0.0345  0.1749
42348W        W73564   5.820  13.463   9.894 -0.2571 -0.0823 -0.1994
42349W        W73565   7.366  15.451   3.444 -0.2239  0.2200  0.0475
42350W        W73566  10.286  24.683   9.634 -0.0642  0.2557 -0.2188
42351W        W73567  13.158  16.227   2.979  0.1333 -0.1144 -0.2339
42352W        W73568  23.721  21.738   2.355  0.1185 -0.2990  0.0162
42353W        W73569   9.424  20.833   3.259 -0.1964  0.4851 -0.0366
42354W        W73570   8.918   8.704   9.481 -0.0087 -0.3960  0.0496
42355W        W73571  15.058   3.901   3.806 -0.0768 -0.0807 -0.0626
42356W        W73572  21.133  22.217   4.004 -0.1343 -0.1542 -0.0091
42357W        W73573   1.979  26.824   0.790 -0.0597 -0.3282 -0.0288
42358W        W73574  15.654  18.556   2.345 -0.1363  0.0812  0.1892
42359W        W73575  13.730   8.212  10.196 -0.2649 -0.0950 -0.1803
42360W        W73576   0.667  19.461   3.527  0.1579  0.0752 -0.0214
42361W        W73577  16.404   5.282   7.215 -0.0941  0.0623 -0.1752
42362W        W73578  10.211   0.338  10.144 -0.2326  0.1429  0.5980
42363W        W73579  15.602   4.013   0.878 -0.3598 -0.2150 -0.1774
42364W        W73580   5.664  26.768   0.568 -0.0326 -0.0514 -0.1453
42365W        W73581  14.611   7.134   0.262  0.4535  0.0909 -0.0067
42366W        W73582   2.862  18.335   0.602  0.2744  0.3414 -0.2219
42367W        W73583   7.948  14.255  10.501  0.1506  0.1498 -0.0845
42368W        W73584   4.001  15.388   2.869  0.3211  0.3395  0.5064
42369W        W73585   9.805  17.326   1.386  0.2892  0.4573  0.1964
42370W        W73586  17.369  19.335   7.819 -0.1392  0.0268 -0.0528
42371W        W73587  25.783  11.061   1.261 -0.2719  0.3363  0.0176
42372W        W73588  20.622  14.580   1.370 -0.0402 -0.1346 -0.3097
42373W        W73589   2.453  24.801   2.421 -0.0398 -0.4171 -0.4035
42374W        W73590  22.868   1.033   9.108 -0.2528  0.0993  0.0069
42375W        W73591  17.267  23.316   8.084  0.1079  0.2039 -0.0265
42376W        W73592  17.049  10.227   9.772  0.0530  0.0334  0.0916
42377W        W73593   6.820  19.259   0.931  0.4179 -0.1576 -0.1400
42378W        W73594  25.755   8.921   9.330  0.1477  0.2497 -0.2349
42379W        W73595  17.290   6.152   8.907 -0.0083  0.1439 -0.1253
42380W        W73596   0.877   2.854   0.891  0.2404  0.4923  0.3151
42381W        W73597   8.837   2.003   1.405  0.0281  0.0526 -0.3194
42382W        W73598  15.642   7.652   1.593 -0.1092 -0.1101  0.2740
42383W        W73599  25.128  22.943   0.867 -0.1632  0.0424  0.1442
42384W        W73600   9.757   7.756   1.260 -0.2274  0.2427 -0.0764
42385W        W73601  20.648  15.202   1.330 -0.3214 -0.2459 -0.1569
42386W        W73602   2.814  21.598  10.199  0.1055  0.1697  0.1373
42387W        W73603  23.515  12.113   7.851  0.0361  0.1382 -0.1098
42388W        W73604  11.116  17.702   1.950  0.2269 -0.1934 -0.0157
42389W        W73605   4.428  23.453   8.681  0.1274  0.0252  0.0112
42390W        W73606   2.687   2.993   1.382  0.0471  0.0152 -0.0875
42391W        W73607  10.324   6.611   7.640  0.2763  0.0503  0.1322
42392W        W73608   1.862   5.925   1.848  0.0728  0.1307 -0.3222
42393W        W73609   6.791   0.701   2.509 -0.3052  0.0214 -0.4508
42394W        W73610  18.482  22.423   2.104 -0.3779 -0.1214  0.0684
42395W        W73611  26.613   8.523   7.827  0.0600  0.3737  0.4041
42396W        W73612  27.409  15.844   3.452  0.0683  0.0997 -0.0939
42397W        W73613  25.970   1.076   1.876  0.1034 -0.2129  0.3901
42398W        W73614  16.125   9.278  10.324 -0.1417 -0.0757 -0.1072
42399W        W73615  27.315   7.383   2.118  0.3085  0.2112 -0.1693
42400W        W73616   0.298  14.499   8.065 -0.1455  0.1969 -0.0819
42401W        W73617  10.966   9.103   9.044 -0.0005  0.1222 -0.0044
42402W        W73618   5.216  23.101   1.949 -0.0642  0.1646  0.2185
42403W        W73619  17.275  26.498   9.509 -0.0938  0.0170 -0.0805
42404W        W73620  23.374  24.174   8.231 -0.1449 -0.1280  0.1169
42405W        W73621  16.282  25.835   7.990 -0.0807 -0.0369 -0.0080
42406W        W73622   9.790  26.393   1.344 -0.0005 -0.0007  0.0467
42407W        W73623  11.746  14.260   9.871  0.2041 -0.0232  0.1373
42408W        W73624   7.612  25.640   9.627  0.3156  0.1817 -0.0335
42409W        W73625  22.551   7.040   0.536 -0.0544 -0.0515 -0.1380
42410W        W73626   1.146  12.265   3.130  0.0421 -0.0161  0.1547
42411W        W73627  22.470   5.384   0.040  0.2172 -0.3221 -0.0193
42412W        W73628  16.875   7.959   9.989 -0.0328  0.0410 -0.3757
42413W        W73629   0.785  14.216   2.115  0.1031  0.2027  0.0366
42414W        W73630  19.001  21.893   0.063 -0.2952  0.0849  0.2233
42415W        W73631   2.297   2.306   2.331 -0.0795 -0.2661  0.0816
42416W        W73632   9.272  19.441   0.559 -0.4349  0.1515 -0.1102
42417W        W73633  26.377   0.222   8.346 -0.0951  0.1720  0.1487
42418W        W73634   5.164  27.529   3.495  0.0580 -0.1541  0.1016
42419W        W73635  19.958  22.156   7.986  0.2377 -0.4427 -0.1014
42420W        W73636  17.452   4.004   1.106 -0.1630  0.2014  0.0381
42421W        W73637   3.875  20.483   1.436  0.1038  0.1598 -0.1105
42422W        W73638  19.333  10.481   9.782  0.2708  0.1703 -0.2168
42423W        W73639   9.988  26.608  10.000  0.1438  0.0114  0.0787
42424W        W73640  12.644  24.419   1.924 -0.1488  0.3497 -0.2038
42425W        W73641  10.365  20.552  10.501 -0.0013  0.1097  0.3686
42426W        W73642   9.840  17.579   3.661 -0.1758 -0.0621 -0.0892
42427W        W73643  19.189  23.558   7.897 -0.1148  0.0390  0.3413
42428W        W73644   8.229  22.184   1.651  0.1689  0.0815 -0.0025
42429W        W73645   4.733  12.016   8.517  0.0157 -0.0905 -0.3151
42430W        W73646  10.049  25.458   9.501  0.1445 -0.1004 -0.1914
42431W        W73647  10.950  12.726   7.767 -0.6130 -0.1241 -0.1167
42432W        W73648  15.747  19.027   0.617  0.0311  0.0173 -0.0027
42433W        W73649  26.656  17.096   8.663 -0.2899  0.1484  0.0088
42434W        W73650  25.332   7.602   1.352 -0.1340  0.2470 -0.1816
42435W        W73651   2.730  11.495   3.839  0.0178 -0.1387  0.0216
42436W        W73652  19.570  19.738   9.443  0.0993  0.1014  0.4855
42437W        W73653  23.204   2.545   2.149  0.0235  0.0577 -0.1153
42438W        W73654  13.560  25.656   9.329 -0.3653 -0.1898  0.0593
42439W        W73655  11.364  13.953   9.888 -0.3273 -0.2816 -0.3808
42440W        W73656  12.372  11.694   2.351 -0.0813 -0.0459  0.1464
42441W        W73657  16.202  22.182   8.877 -0.0536 -0.0150  0.0024
42442W        W73658   5.641   2.632   2.540  0.4887  0.1245  0.0296
42443W        W73659  21.847  20.371   2.818  0.1887 -0.1895 -0.3938
42444W        W73660  11.778   7.784   1.482  0.2122 -0.3495 -0.1630
42445W        W73661  27.088   2.905   1.908  0.0497  0.1909 -0.0593
42446W        W73662  16.238   1.304   3.277  0.3716 -0.0104 -0.2918
42447W        W73663   7.164   8.144   0.294  0.1825 -0.0194 -0.2921
42448W        W73664  12.073  12.523   6.920 -0.0922 -0.2649  0.3419
42449W        W73665   7.921  17.806   9.006  0.0222  0.2922 -0.1601
42450W        W73666  20.925  12.096   7.559  0.0463 -0.1772 -0.1635
42451W        W73667  13.878  16.171   1.966  0.0133 -0.0898  0.2843
42452W        W73668  22.369  15.336   0.062 -0.1792 -0.0363  0.2133
42453W        W73669  27.401   1.202   8.038 -0.2783 -0.0019 -0.2011
42454W        W73670   3.612  21.098   7.653 -0.1554 -0.2541 -0.1124
42455W        W73671  25.140  15.969   2.472 -0.0345 -0.0821  0.0653
42456W        W73672  14.151   9.697  10.362  0.3552  0.1410  0.0031
42457W        W73673  16.309   6.777   2.546  0.2650 -0.1460 -0.1356
42458W        W73674  25.273  22.943   8.343  0.5610 -0.0769 -0.2681
42459W        W73675   1.343   5.705   9.405 -0.1711 -0.4838  0.2591
42460W        W73676  16.901  19.605   9.697 -0.1235  0.0827 -0.0842
42461W        W73677   6.408   4.851   2.632 -0.1074 -0.0588  0.0147
42462W        W73678  26.468  18.848   8.100 -0.4064 -0.5664  0.3292
42463W        W73679   7.992  12.054   2.073  0.0680 -0.0831  0.0384
42464W        W73680  14.041  15.921   2.742 -0.3706  0.2255  0.2300
42465W        W73681  11.290  21.294   1.839  0.1768 -0.3673 -0.1334
42466W        W73682   3.109   3.477   0.507  0.0230 -0.0626 -0.2097
42467W        W73683  23.063  17.075   2.433  0.2397  0.1945  0.0255
42468W        W73684   2.859  25.062   0.951 -0.4075  0.2691 -0.1583
42469W        W73685   9.353  24.084   7.686 -0.0254 -0.2535  0.3178
42470W        W73686  27.045   0.242   8.834 -0.3191  0.0456  0.3228
42471W        W73687  11.113  21.420   2.466  0.3927 -0.2717 -0.2950
42472W        W73688  16.140  25.155   0.740 -0.0898  0.0349 -0.1852
42473W        W73689  21.068   4.029   0.878 -0.4163 -0.0951  0.0222
42474W        W73690  13.955   8.354   8.352 -0.1877 -0.4146  0.3668
42475W        W73691   4.190  27.031   1.969  0.0599 -0.1322  0.1117
42476W        W73692  16.752   4.607   2.520  0.1854 -0.1610 -0.1202
42477W        W73693   4.714  10.028   1.287 -0.0977 -0.3746 -0.1140
42478W        W73694  19.548  10.950   9.039 -0.2223 -0.1241  0.0409
42479W        W73695   5.123   6.706   1.641  0.3665  0.0602 -0.2079
42480W        W73696  24.801  19.152   1.972 -0.0677  0.0767  0.3530
42481W        W73697  22.875   5.028   0.896  0.0474  0.0718 -0.4157
42482W        W73698  27.253  20.774   8.509  0.1135  0.0522  0.3319
42483W        W73699   3.082  22.437   0.086 -0.3073 -0.1438  0.0050
42484W        W73700  22.112  11.444   8.919  0.2050  0.0052  0.1220
42485W        W73701   9.931  13.414   1.500  0.0793 -0.4378  0.0228
42486W        W73702   8.555  22.021   0.300 -0.1728  0.0279 -0.1628
42487W        W73703   9.887  19.971   8.043  0.0086 -0.1580 -0.1083
42488W        W73704   1.641  11.613   9.030  0.1906  0.0776 -0.0038
42489W        W73705   3.613   0.022   7.758 -0.1304 -0.4337  0.3661
42490W        W73706   7.037  23.626   9.850 -0.2342 -0.1199  0.2965
42491W        W73707  19.281  19.613   0.049  0.1280 -0.0791  0.1220
42492W        W73708   4.283  16.001   9.483 -0.0710  0.3110  0.0407
42493W        W73709  27.001   3.579   0.106  0.1410 -0.0381 -0.2678
42494W        W73710   9.175  20.221   1.782  0.0027 -0.1061  0.5535
42495W        W73711  11.994  12.158   8.099  0.0556  0.0761  0.0385
42496W        W73712  14.167   5.760   2.746 -0.3028  0.2219  0.1502
42497W        W73713   5.848  12.869   1.686  0.3358  0.2651 -0.2240
42498W        W73714   2.463  23.299   9.720 -0.2705 -0.1802  0.0306
42499W        W73715  25.652   0.121   8.261 -0.1065 -0.0976  0.0797
42500W        W73716   2.845   0.806   0.572 -0.1239 -0.0807  0.3027
42501W        W73717  25.252  12.552   8.841  0.2659  0.1019  0.0710
42502W        W73718  18.944  26.185   8.162 -0.1723  0.0048 -0.0541
42503W        W73719   3.471  10.568   3.666  0.0654  0.3024 -0.1834
42504W        W73720  24.731  26.154   0.028 -0.1378 -0.2839  0.1939
42505W        W73721  20.468  19.153   1.804  0.0627  0.2665  0.2029
42506W        W73722  19.233   1.694   3.836  0.1429 -0.1651 -0.0214
42507W        W73723  14.184  21.684  10.268 -0.0116 -0.2080  0.1011
42508W        W73724   8.796   6.337   0.460  0.1779 -0.0254  0.1134
42509W        W73725   7.204   2.211  10.134 -0.3580  0.1108 -0.0619
42510W        W73726  25.568   4.192   3.326 -0.2339 -0.2510 -0.0586
42511W        W73727   4.317  18.842   7.596  0.2739 -0.0413  0.1997
42512W        W73728   0.779   7.590   1.405 -0.1585 -0.1190  0.0727
42513W        W73729  21.368   6.599   9.524  0.0190  0.0843  0.2052
42514W        W73730   3.504  11.530   9.955  0.0312  0.1780  0.1383
42515W        W73731   8.059  27.411   9.209  0.1421 -0.0298  0.2532
42516W        W73732   2.358   1.285  10.331 -0.1302  0.0113 -0.0715
42517W        W73733  25.478  19.112   8.451  0.0098  0.0311  0.1140
42518W        W73734  15.993  12.635   9.001 -0.0622  0.2982  0.2406
42519W        W73735  26.777  24.717   1.366 -0.2998  0.0990 -0.0510
42520W        W73736  11.486  17.035   9.737 -0.2412  0.0687 -0.2933
42521W        W73737  10.485  27.570   1.975 -0.0873  0.0848  0.0968
42522W        W73738  14.365  27.071   0.446  0.2418  0.1791 -0.0587
42523W        W73739   7.384  22.237   1.322  0.0922 -0.1836 -0.0775
42524W        W73740  14.185   8.872   2.347  0.0604  0.5315  0.0251
42525W        W73741   3.587   5.494   2.332  0.3401 -0.0628  0.0654
42526W        W73742  27.532  15.596   3.836 -0.1798  0.2796 -0.2349
42527W        W73743  27.087  15.636   2.000 -0.0527  0.3079  0.1619
42528W        W73744  21.390  15.421   8.582 -0.1576 -0.0996  0.1467
42529W        W73745   5.864   4.662   9.629 -0.1692 -0.2728  0.1283
42530W        W73746  23.429  23.823   3.304  0.0548  0.0587 -0.1210
42531W        W73747   5.443  10.771  10.341 -0.0699 -0.2962  0.1260
42532W        W73748  26.991  18.248   8.747  0.0979 -0.5321  0.2244
42533W        W73749   3.255  14.176   7.741  0.1309 -0.5504 -0.0770
42534W        W73750  16.114  22.617   2.607 -0.1014 -0.2656 -0.0461
42535W        W73751   5.766   6.280   0.821 -0.1037  0.1211 -0.1090
42536W        W73752  15.357   7.949   7.781 -0.2056  0.1124 -0.1808
42537W        W73753  18.597   9.925   9.468 -0.0345 -0.1427  0.0144
42538W        W73754  24.959   7.756   8.346  0.2682  0.2163 -0.1617
42539W        W73755   0.825  22.258   0.194  0.1389 -0.0643  0.1344
42540W        W73756   3.813   3.335   1.172 -0.0548 -0.1166  0.2216
42541W        W73757  11.702   3.937   3.133 -0.0553  0.0923 -0.1816
42542W        W73758   8.438  18.171   0.304 -0.1163  0.0098 -0.0840
42543W        W73759  11.304   1.849   9.877  0.0624 -0.0546 -0.1874
42544W        W73760  17.987   5.136   1.780  0.0149  0.1418  0.2304
42545W        W73761  24.909  20.398  10.509  0.4420  0.3401 -0.0326
42546W        W73762  10.140   0.807   1.006 -0.0853 -0.1249 -0.2253
42547W        W73763   5.944  25.646   0.979  0.0439  0.2056 -0.0434
42548W        W73764  11.833  14.614   9.529 -0.0758  0.0346  0.1007
42549W        W73765  13.055   7.816   8.314  0.0313 -0.1383 -0.2569
42550W        W73766   1.769  12.387   7.751 -0.1920  0.2239 -0.1444
42551W        W73767   7.089  24.725   4.070  0.2865 -0.1909  0.1638
42552W        W73768   7.594  20.842   0.250  0.2928  0.1238 -0.0766
42553W        W73769  26.548   7.749   2.205  0.0991  0.0961  0.1465
42554W        W73770   9.634  12.682   9.608 -0.1704 -0.0067 -0.0466
42555W        W73771  10.159  25.046   2.664  0.3516  0.2408 -0.2686
42556W        W73772  23.138   2.122   8.994  0.0050  0.0520  0.3139
42557W        W73773   0.934  11.344   7.406  0.0472 -0.1326  0.0705
42558W        W73774  24.596   8.015   2.695 -0.0679  0.2271 -0.0281
42559W        W73775  17.839  10.707   8.851  0.0244 -0.2519  0.2020
42560W        W73776  20.474  26.518   0.405  0.2903 -0.0399  0.0137
42561W        W73777  11.468  18.451   1.618  0.2479  0.2916 -0.0927
42562W        W73778  26.677   9.163   8.760 -0.2437 -0.1229 -0.1616
42563W        W73779   7.495  11.151   8.590 -0.1465  0.3049 -0.2600
42564W        W73780  17.943  20.920   0.450  0.1159 -0.0036 -0.3181
42565W        W73781   2.437  13.070   0.531 -0.1075 -0.2829  0.0244
42566W        W73782   8.007   8.092   8.278 -0.4488 -0.0008 -0.0422
42567W        W73783  11.189   4.044   8.317  0.2555 -0.1899 -0.0460
42568W        W73784   3.287   1.782   8.777 -0.3006 -0.3668 -0.0433
42569W        W73785  11.291  12.252   7.902  0.1108 -0.1117 -0.1717
42570W        W73786   5.092   8.217   8.025 -0.1818 -0.0876 -0.0378
42571W        W73787   5.168  13.701   8.645  0.0576 -0.1509  0.1378
42572W        W73788  17.414   6.674   2.048  0.0175 -0.0925  0.2383
42573W        W73789   1.446   0.188   2.133 -0.0433  0.2350 -0.0524
42574W        W73790   2.539   5.153   1.800  0.1409  0.0511  0.1667
42575W        W73791   0.145  20.789   1.152  0.0272  0.3480  0.1812
42576W        W73792   7.189  13.166   2.545  0.3079 -0.4336 -0.3628
42577W        W73793  14.395   5.786   0.418  0.1924 -0.0779 -0.0456
42578W        W73794  23.508   9.062   3.463  0.2530  0.1160 -0.0790
42579W        W73795  25.406  25.560   1.361  0.0782  0.1133  0.2132
42580W        W73796  19.302  21.080   9.005 -0.3003 -0.3713 -0.1883
42581W        W73797  12.535   1.707   0.487  0.0824 -0.0725 -0.3094
42582W        W73798  22.166  23.053   3.244 -0.3171  0.3224 -0.2180
42583W        W73799  12.420   8.054   9.784  0.3523 -0.2468  0.1337
42584W        W73800  25.302  26.563   8.016  0.0873 -0.1189  0.3134
42585W        W73801   2.255   6.757   2.004 -0.1320  0.0565 -0.1752
42586W        W73802  26.057  18.059   0.776 -0.1014  0.0224  0.0233
42587W        W73803   6.220  17.428   9.653 -0.3238 -0.1056  0.0157
42588W        W73804  14.924   7.841   9.309  0.0210 -0.0627 -0.0982
42589W        W73805   5.432   0.417   1.013  0.1195 -0.0436 -0.0368
42590W        W73806  19.404   1.517   2.765  0.0330  0.0583  0.0082
42591W        W73807   3.425  10.434   1.491  0.0366 -0.1560 -0.1427
42592W        W73808  24.132  18.439   3.386  0.3067  0.0931  0.0553
42593W        W73809   1.581  18.610   1.940  0.1433  0.0331 -0.1882
42594W        W73810  24.292   9.660   8.457 -0.2010 -0.2154 -0.2412
42595W        W73811  12.617   4.378   9.099  0.0697 -0.1238 -0.1204
42596W        W73812  18.898   4.976   9.726  0.1052 -0.2776 -0.4772
42597W        W73813  11.000  26.627   0.258  0.0434  0.0755  0.0600
42598W        W73814  19.844  16.602   7.352  0.0628  0.0861 -0.2936
42599W        W73815  23.175  27.536  10.085 -0.0222  0.1322 -0.0435
42600W        W73816   3.136  19.233   9.549  0.1643 -0.0694 -0.0460
42601W        W73817  12.305  20.697   8.158  0.0643  0.0688 -0.0901
42602W        W73818   9.773  13.119   3.751  0.4132 -0.1008 -0.3158
42603W        W73819   1.186  17.841   0.145  0.1765  0.1056 -0.1672
42604W        W73820  26.274  11.878   2.219  0.5198 -0.1276 -0.0426
42605W        W73821  10.563  17.843   9.336  0.1293 -0.4331 -0.0140
42606W        W73822   1.925   4.132   3.304  0.2277 -0.0585  0.6705
42607W        W73823   5.959   6.907   3.092 -0.1813 -0.1387 -0.0204
42608W        W73824   9.457   4.721   8.582  0.0455  0.0351  0.0474
42609W        W73825   1.570  15.285   0.550 -0.1880 -0.3739 -0.0178
42610W        W73826  23.153  17.564   9.517 -0.0876 -0.1040  0.1093
42611W        W73827   7.945  18.992   8.551 -0.3500  0.1291 -0.2014
42612W        W73828  27.272   7.843   0.934  0.2594 -0.0570 -0.2595
42613W        W73829   0.160  25.436  10.178  0.0502 -0.1011 -0.1285
42614W        W73830   9.460   2.890   1.359 -0.2776 -0.1138  0.1835
42615W        W73831  11.450  12.913   1.891 -0.1251  0.0901  0.1123
42616W        W73832  13.092  21.831   1.624  0.1869 -0.0334  0.0504
42617W        W73833   2.848  24.755   2.853  0.0259 -0.0199 -0.1214
42618W        W73834  19.419  26.488   8.280 -0.0050 -0.0355 -0.0809
42619W        W73835  12.378  17.093   0.923 -0.2219  0.2424 -0.3366
42620W        W73836  19.428   8.655   2.305 -0.0627 -0.1653 -0.1218
42621W        W73837  25.427   5.755   2.126  0.1344  0.3559  0.1186
42622W        W73838  17.615   8.544   1.635  0.2570  0.1873  0.2333
42623W        W73839  23.715  24.076   1.971 -0.3571  0.0875 -0.1241
42624W        W73840  17.702   0.147   9.964  0.0002  0.1545 -0.0498
42625W        W73841   1.161  18.664   9.277  0.1829  0.2018 -0.1442
42626W        W73842   4.437   5.805   9.157 -0.0387  0.0912 -0.0348
42627W        W73843  24.896   8.553   8.517  0.0063  0.0837 -0.2090
42628W        W73844  25.638  21.858   0.069 -0.1852 -0.0440  0.2724
42629W        W73845  22.864   0.519   8.190  0.3110 -0.1940  0.3651
42630W        W73846  13.440  10.774   2.855 -0.1364 -0.0075  0.0794
42631W        W73847  20.517  24.594   8.025  0.3161 -0.0015 -0.0435
42632W        W73848  24.430  14.720   0.270  0.1914  0.4033 -0.1029
42633W        W73849   2.694   6.040   1.660 -0.2579  0.2745  0.1948
42634W        W73850   9.137  14.152   0.974 -0.3515 -0.2484  0.0317
42635W        W73851   9.482   3.673   8.810  0.1809 -0.3674 -0.1030
42636W        W73852   8.725   0.532   0.165  0.2070  0.0203  0.1138
42637W        W73853  14.653  10.997   2.423 -0.0795 -0.2485  0.1116
42638W        W73854  19.745   9.593   2.988  0.0518 -0.2183  0.1443
42639W        W73855  10.913   5.022   9.569  0.0817 -0.0062 -0.2563
42640W        W73856  12.676   1.089   2.687 -0.2773  0.0562 -0.1393
42641W        W73857   1.285   2.718   0.558  0.2132 -0.2972  0.1238
42642W        W73858  21.820   5.679   0.993  0.3261  0.0844 -0.1318
42643W        W73859   0.734   4.387   1.393 -0.0887  0.1463  0.0814
42644W        W73860  13.948   9.348   4.138  0.2045 -0.3092  0.4346
42645W        W73861  10.701   7.925   0.401  0.1104  0.2240 -0.1712
42646W        W73862   6.537  19.521   8.818 -0.3832 -0.2532 -0.2002
42647W        W73863  20.744   2.194   8.426  0.0712  0.0303  0.1345
42648W        W73864  16.166  18.785   0.851 -0.2365 -0.0435  0.2215
42649W        W73865  12.820   1.944   0.109 -0.2652 -0.5724 -0.0707
42650W        W73866  20.489  17.429   2.991  0.3829 -0.2828  0.0340
42651W        W73867   6.929  21.333   2.121 -0.1535 -0.0966 -0.0799
42652W        W73868   7.728  15.284   9.128  0.1103  0.0531  0.2689
42653W        W73869   3.406  20.679   1.289 -0.0881  0.1215 -0.1175
42654W        W73870  10.258  16.880   7.882  0.1117 -0.0736  0.1349
42655W        W73871  22.615   0.990   1.456  0.2147 -0.1542  0.3005
42656W        W73872   9.171  11.054   0.778  0.0193  0.0651  0.0470
42657W        W73873   2.273  23.396   3.940  0.1385 -0.0593 -0.1307
42658W        W73874   6.595  11.770   0.937  0.0365  0.0914 -0.0993
42659W        W73875   1.426  25.694   0.258 -0.0758  0.0288  0.0811
42660W        W73876   3.287   6.483   3.130  0.0850  0.1029 -0.3736
42661W        W73877   0.437  19.148   1.724  0.0224  0.1408 -0.1947
42662W        W73878  14.373   1.745   1.856 -0.0582  0.0255 -0.1792
42663W        W73879  26.179   9.062  10.463  0.0600 -0.1898 -0.0922
42664W        W73880   6.616   3.649   8.319  0.1875  0.1174  0.0226
42665W        W73881  24.476  15.253   1.209 -0.0028 -0.3663  0.0595
42666W        W73882  23.510  14.323   7.341  0.2089 -0.0293  0.2614
42667W        W73883  11.462   4.148   7.918  0.0023  0.2624  0.1017
42668W        W73884  25.605  26.648  10.502 -0.0179 -0.1427 -0.0740
42669W        W73885  15.285   6.543   8.020  0.1798 -0.3993  0.0887
42670W        W73886  25.137   6.359   2.614  0.2377 -0.0348  0.2736
42671W        W73887  21.805  13.094   0.866  0.1351  0.0782  0.2827
42672W        W73888   9.246  18.506   9.754  0.1725 -0.2422 -0.1458
42673W        W73889  11.522  12.382   8.343  0.0919  0.4822 -0.0024
42674W        W73890  18.017   9.398   7.193  0.1426 -0.1148  0.3028
42675W        W73891  18.822  23.838   3.051  0.2844  0.3509 -0.0765
42676W        W73892  20.042  22.907   0.443  0.2155 -0.0318 -0.2151
42677W        W73893  14.136  13.584  10.298 -0.1565  0.0289  0.0014
42678W        W73894  11.662   0.195   3.403 -0.0720  0.3120 -0.2223
42679W        W73895   1.577  19.706   1.744  0.1834 -0.0844  0.2309
42680W        W73896  12.151   4.847   0.271 -0.2358  0.1954  0.2599
42681W        W73897  17.468   7.481   8.505 -0.0653  0.2444 -0.0106
42682W        W73898  25.743  10.935   9.559  0.2558 -0.0141  0.0274
42683W        W73899   0.942   7.649   0.262 -0.0476 -0.0066 -0.0873
42684W        W73900   3.492  13.656  10.490 -0.1615 -0.1830  0.1988
42685W        W73901   2.610  26.785   2.313 -0.4111 -0.0730  0.0611
42686W        W73902  16.150  18.384   8.467  0.2190  0.1078 -0.0478
42687W        W73903   3.389   4.538   9.245 -0.4473  0.3157 -0.0654
42688W        W73904  16.351   5.489   8.153  0.0795 -0.1345 -0.0462
42689W        W73905  19.540   5.370   3.848 -0.3018  0.0681 -0.0554
42690W        W73906  24.325  24.247   9.868 -0.1335 -0.1763 -0.3770
42691W        W73907  11.543  13.816   8.959 -0.0722  0.0282  0.2432
42692W        W73908  15.471  13.199   0.759 -0.0544  0.1838  0.0007
42693W        W73909  24.322  17.958   9.612 -0.0697  0.0460  0.1136
42694W        W73910  14.470  19.576   2.987  0.4538  0.3686  0.0398
42695W        W73911   9.028  12.141  10.030 -0.2136 -0.2122  0.2107
42696W        W73912  11.696  10.299   2.088 -0.0262  0.2682  0.0675
42697W        W73913   4.653  11.797   2.013 -0.4724 -0.2106  0.3367
42698W        W73914  13.390   9.269   0.410  0.0718  0.2006  0.3339
42699W        W73915   4.687   3.647   9.655 -0.0214 -0.0154  0.0800
42700W        W73916   7.639  19.717   2.988 -0.1765  0.0460  0.1577
42701W        W73917   8.021  23.351   3.075  0.2249 -0.0346 -0.2664
42702W        W73918   5.890  23.433   3.653  0.1878  0.1309 -0.0563
42703W        W73919   0.450  26.971   0.191  0.0608 -0.0878  0.0095
42704W        W73920  22.909  16.434  10.163  0.3074 -0.2748  0.1860
42705W        W73921  17.106  19.231   9.994 -0.1740  0.1941 -0.1714
42706W        W73922   8.222  24.801   2.056  0.0241 -0.0949  0.0808
42707W        W73923   3.299  12.328   9.503 -0.0572  0.0745  0.0340
42708W        W73924  10.190  15.085   9.392  0.5194 -0.0337  0.2398
42709W        W73925   3.803  15.874   0.310 -0.2930  0.1492  0.1443
42710W        W73926   9.783   2.321   8.218  0.2307 -0.0973  0.2082
42711W        W73927   9.292   9.431   8.461 -0.0846  0.0833 -0.0722
42712W        W73928   6.148  21.041   9.541  0.0663 -0.0578 -0.1925
42713W        W73929  24.097   7.306   9.605 -0.1328  0.0065  0.0536
42714W        W73930  17.758  11.808   3.294  0.2321 -0.1012 -0.1521
42715W        W73931  18.436  25.639  10.070  0.3751  0.0204  0.1639
42716W        W73932   1.218  24.736   2.704  0.3951  0.0668  0.1619
42717W        W73933   9.212  15.443   1.841  0.2035  0.1438  0.0719
42718W        W73934   7.702  27.449   3.678 -0.1900 -0.2315  0.1598
42719W        W73935  10.367   6.561   1.291 -0.0659  0.0243 -0.2094
42720W        W73936  19.638  24.971   1.980 -0.0099  0.2962 -0.4695
42721W        W73937  15.827  23.180  10.362  0.0628 -0.0599 -0.2614
42722W        W73938  27.097   6.484   9.694  0.1492  0.0684  0.3501
42723W        W73939  13.880   4.747   0.762 -0.0063 -0.1257  0.1657
42724W        W73940  14.582   2.696   1.208  0.2519 -0.3710 -0.0256
42725W        W73941   1.776   6.544   3.725 -0.0991 -0.0895 -0.0219
42726W        W73942   7.230   2.124   2.954 -0.3272  0.0944  0.1151
42727W        W73943  17.059   7.026   0.952  0.2035 -0.0581  0.0943
42728W        W73944   6.694   4.617   1.898  0.1811  0.1283 -0.0251
42729W        W73945   6.851  15.413  10.357 -0.3203  0.0836  0.0135
42730W        W73946   5.528  24.089   2.373  0.0867 -0.2276  0.1562
42731W        W73947  21.757  12.491   2.123  0.0253 -0.1675  0.0021
42732W        W73948  16.026   6.973  10.480  0.1592 -0.0942 -0.4101
42733W        W73949   0.881  13.215   1.676  0.0562  0.1453  0.1187
42734W        W73950  13.441  17.262   9.681  0.0089 -0.0328 -0.0011
42735W        W73951   2.885   2.227   2.695 -0.4857 -0.3275  0.0963
42736W        W73952   9.035  27.551   0.887 -0.2343 -0.1631  0.0314
42737W        W73953  16.200  19.820   8.650 -0.1737 -0.2740 -0.1666
42738W        W73954   1.192   9.983   1.016  0.0663 -0.4060  0.1675
42739W        W73955  22.703  18.186   7.643  0.2138 -0.0748 -0.0159
42740W        W73956   4.596  14.411   1.782 -0.0289  0.0092  0.1602
42741W        W73957  11.786  14.346   2.030  0.1691  0.2530  0.0970
42742W        W73958  24.498  20.347   9.252  0.2497  0.1487 -0.0810
42743W        W73959  25.050  21.557   1.243 -0.1864  0.1218 -0.0430
42744W        W73960   0.247  25.029   2.019  0.0899  0.1699 -0.0133
42745W        W73961   4.688  10.688   1.224  0.1018 -0.2345  0.1548
42746W        W73962  15.699  11.546   6.888 -0.0514  0.0232  0.2831
42747W        W73963   3.849  18.872   8.527 -0.1978 -0.1265  0.0902
42748W        W73964  16.431  14.821   7.925  0.2055 -0.1441  0.2431
42749W        W73965   4.892  10.031   8.050 -0.4493 -0.0605 -0.0170
42750W        W73966  23.563   5.748  10.403  0.0574  0.1793 -0.0300
42751W        W73967   1.319   7.406   1.305  0.1820 -0.0761 -0.0968
42752W        W73968  16.105  19.319   8.374  0.0241  0.2414 -0.1711
42753W        W73969  17.918  12.111   0.713  0.2012 -0.0812  0.0604
42754W        W73970  17.827  16.685   0.642  0.0403 -0.4049 -0.0186
42755W        W73971  18.118  23.770   0.898  0.0825 -0.0276  0.2788
42756W        W73972   8.926   7.933   2.606  0.1470 -0.3709 -0.2188
42757W        W73973  21.602  20.502   9.350  0.0797 -0.1312 -0.5159
42758W        W73974  14.717   6.280   9.354 -0.0954 -0.1641  0.0720
42759W        W73975   7.547  25.544   1.877  0.0980 -0.0524 -0.0577
42760W        W73976  15.244   7.081   2.886  0.1102  0.1774  0.0577
42761W        W73977  24.677   6.003   8.714  0.1507 -0.0531  0.0213
42762W        W73978  11.462  27.056  10.127  0.1472  0.1340  0.1665
42763W        W73979  11.507   8.760   1.277 -0.1810 -0.1601 -0.1322
42764W        W73980  15.392  21.335   0.579  0.2553 -0.0824  0.1582
42765W        W73981  23.483  16.627   8.767 -0.3334 -0.1142 -0.1850
42766W        W73982  10.684   2.780   8.737 -0.0968 -0.0406 -0.1397
42767W        W73983  22.451  10.743   8.289 -0.4345 -0.0297 -0.0475
42768W        W73984   5.702  26.609   9.641 -0.2878 -0.1480 -0.1120
42769W        W73985   6.354  16.444   1.414  0.0068  0.1634  0.1247
42770W        W73986  22.618   0.903   2.474  0.1851  0.0144  0.0278
42771W        W73987   1.898  14.242   8.407  0.3570 -0.2370 -0.1766
42772W        W73988   1.739  14.314   0.908 -0.2875 -0.1355 -0.1937
42773W        W73989  18.801  12.974   1.882  0.1342 -0.0067 -0.0385
42774W        W73990  17.205  23.915  10.374 -0.1415 -0.1757 -0.1006
42775W        W73991  10.489   0.001   2.918 -0.0718  0.1312 -0.2968
42776W        W73992   5.177  19.732   9.153 -0.2925  0.4326 -0.3220
42777W        W73993   4.947  26.776   1.213  0.0298  0.3683 -0.1299
42778W        W73994  16.567  14.372   1.086  0.0825  0.0449  0.1877
42779W        W73995  16.920  10.763   1.723  0.1607  0.0381  0.0440
42780W        W73996   9.287   5.634   1.641 -0.0277  0.0318 -0.2413
42781W        W73997  17.463  11.725   8.470  0.0167  0.1593  0.1473
42782W        W73998  11.901   1.399   7.803  0.1816 -0.2058 -0.1420
42783W        W73999  19.066   5.878   7.728  0.1772  0.1392  0.1377
42784W        W74000   1.411  17.684   9.999  0.0598  0.0442  0.2267
42785W        W74001  21.664   6.521   1.312  0.3043  0.3324 -0.1249
42786W        W74002  18.426   1.523   8.415  0.2679 -0.0423 -0.1451
42787W        W74003  11.495  23.975   9.764  0.1141  0.0572 -0.0820
42788W        W74004   2.575  24.279   3.112 -0.1247 -0.0246  0.0178
42789W        W74005  22.329   2.364   9.388 -0.0328 -0.2425 -0.2684
42790W        W74006  25.613  20.997   8.236  0.2342  0.0670 -0.2466
42791W        W74007  22.174   3.953   7.758 -0.1357 -0.3584 -0.2325
42792W        W74008  14.466  21.286  10.064  0.1133  0.0853 -0.0207
42793W        W74009  13.330  21.346   9.926  0.3063  0.3690 -0.0837
42794W        W74010   3.794  15.050   0.898 -0.0062 -0.0118  0.0182
42795W        W74011   6.143  27.306   9.360 -0.1009  0.5339  0.1595
42796W        W74012  24.588  16.655  10.227 -0.2417 -0.0924 -0.1399
42797W        W74013   1.761  17.465   2.658 -0.0495  0.1136  0.1349
42798W        W74014  19.054   4.714   8.836 -0.1003  0.0220 -0.1876
42799W        W74015  16.522   4.344   1.277 -0.0041  0.0979 -0.0406
42800W        W74016  20.822  12.860  10.381 -0.2551 -0.1754 -0.1045
42801W        W74017  13.570   1.605   0.537  0.2756 -0.2861 -0.2517
42802W        W74018  16.082  23.964   3.772 -0.2195  0.3389  0.1029
42803W        W74019   5.285   9.104   0.141  0.1856  0.1386 -0.2075
42804W        W74020  25.023  22.753   2.959  0.2755 -0.2352  0.0642
42805W        W74021   9.850  14.196   9.274  0.0421  0.0105 -0.0297
42806W        W74022   4.347   3.061   8.995  0.0076 -0.0711  0.3152
42807W        W74023   0.333   0.747  10.233 -0.0059  0.0332  0.2035
42808W        W74024   9.001  21.607   3.710  0.2848  0.0136 -0.4097
42809W        W74025   6.081  25.210   3.555  0.1615  0.0031 -0.0358
42810W        W74026  25.977   8.850   0.475  0.0105  0.2640 -0.4604
42811W        W74027   3.980  11.721   3.308  0.1167  0.4913  0.0712
42812W        W74028  15.195  12.252  10.283  0.2558 -0.0305  0.3404
42813W        W74029  13.624  23.780   9.062 -0.0680 -0.1761 -0.2233
42814W        W74030  15.311  26.264   9.762  0.3172 -0.0449 -0.1340
42815W        W74031   5.300  13.447   3.350 -0.1370  0.0046 -0.0256
42816W        W74032   8.462   9.032   1.631 -0.3494  0.1742  0.2614
42817W        W74033  17.685   9.771   0.973 -0.0383  0.1600 -0.0247
42818W        W74034  25.124  15.637   9.238 -0.0237  0.1155 -0.3230
42819W        W74035  16.925  16.798   1.063  0.0919  0.0894 -0.1065
42820W        W74036  16.617   6.783   3.036  0.1063 -0.1806  0.2192
42821W        W74037  10.379  13.425   1.240  0.2169  0.1407 -0.0974
42822W        W74038  25.713  14.166   2.679  0.3519  0.1174  0.0292
42823W        W74039   6.883  11.467   2.702 -0.3990 -0.0117 -0.1186
42824W        W74040  21.157  12.069  10.528 -0.2808 -0.0357 -0.0633
42825W        W74041  20.586  25.740   8.773 -0.2453  0.0510 -0.0256
42826W        W74042  16.539   2.087   0.575 -0.0223  0.2468  0.3522
42827W        W74043   9.035   0.841   1.031 -0.2420  0.0722  0.0022
42828W        W74044   6.660   5.326   8.996  0.0310  0.0602  0.0331
42829W        W74045  25.664  18.188   0.527  0.1968  0.0041  0.0572
42830W        W74046  16.251  17.126   8.796 -0.0168 -0.1765  0.0982
42831W        W74047   6.216   4.941   1.865 -0.0151 -0.2715 -0.2186
42832W        W74048   3.453  17.200   8.166 -0.2065  0.1258  0.0517
42833W        W74049   2.907  17.746   9.611 -0.0653  0.5444 -0.2450
42834W        W74050   3.340  17.349   1.350  0.1619 -0.0850 -0.1775
42835W        W74051  10.884  12.073   1.797  0.0235 -0.1222  0.1230
42836W        W74052  10.206  11.923   0.588 -0.0309 -0.0835 -0.0706
42837W        W74053   8.844  10.661   9.982 -0.4426  0.0763  0.0963
42838W        W74054   4.093  16.296   2.749 -0.2319  0.0608 -0.0146
42839W        W74055  19.423  22.126   2.228 -0.3278  0.0474  0.1788
42840W        W74056  10.238  18.389   1.627 -0.1094  0.0111 -0.0760
42841W        W74057   5.428  26.062   2.077 -0.0604  0.2573 -0.1732
42842W        W74058  21.942   8.290   1.782  0.1541  0.3232 -0.0491
42843W        W74059  13.453   6.071   8.268  0.1214  0.0167  0.0587
42844W        W74060   9.003  14.657   1.672  0.0437 -0.0791 -0.3049
42845W        W74061   1.291  15.682   8.878 -0.1735 -0.0248  0.1245
42846W        W74062  25.563   7.825   8.296  0.1498 -0.1672  0.1784
42847W        W74063   4.709  18.852   1.595 -0.0798  0.3515 -0.1469
42848W        W74064  24.966  12.907   0.308 -0.1063 -0.2149  0.2128
42849W        W74065  19.906  22.337  10.297 -0.2249  0.0873 -0.0024
42850W        W74066  20.839  12.549   2.272 -0.1575 -0.4279 -0.0900
42851W        W74067   7.545  18.780   8.308 -0.1043  0.3770  0.0593
42852W        W74068   8.066  16.104   9.973  0.0723  0.0080  0.4192
42853W        W74069  19.739  11.002   1.057 -0.1151 -0.1169  0.4156
42854W        W74070  12.915  16.334   9.332  0.1945 -0.1078 -0.0933
42855W        W74071  27.139  27.016   9.981 -0.2524 -0.2284 -0.3975
42856W        W74072  15.536  18.345   8.712  0.0293  0.1417 -0.0111
42857W        W74073  21.308  22.125   1.451 -0.1145 -0.1171 -0.2665
42858W        W74074   2.182  12.828   9.687 -0.1050  0.4156 -0.2085
42859W        W74075  27.014   5.623   8.170  0.3667 -0.3208  0.1048
42860W        W74076  12.817  13.937  10.268  0.1728 -0.2680 -0.3607
42861W        W74077  10.577  19.758  10.144 -0.4172  0.3479  0.1908
42862W        W74078  18.858  17.284   0.708  0.0448 -0.0411  0.1627
42863W        W74079  23.670  22.565   1.269  0.1948  0.0656  0.0162
42864W        W74080   1.795   1.838   2.789 -0.2689 -0.1948 -0.1859
42865W        W74081   2.035   5.995   2.770  0.2030  0.0613 -0.0653
42866W        W74082   9.842   9.972  10.442  0.0558 -0.0600 -0.2216
42867W        W74083  11.137  17.034   2.334  0.0124  0.2536  0.3373
42868W        W74084   4.999  26.750   3.107  0.0432  0.3720  0.0864
42869W        W74085  26.045  19.524   1.063  0.0901 -0.1536  0.0804
42870W        W74086   1.304  25.570   1.819 -0.1989 -0.2490  0.1573
42871W        W74087  10.998  18.835   0.995 -0.1874  0.1872 -0.0769
42872W        W74088  10.191  15.525   8.212 -0.0867 -0.0730  0.0550
42873W        W74089  10.719  26.876   9.789 -0.2500  0.1037  0.2844
42874W        W74090   0.216  14.570  10.350  0.1981  0.1313 -0.0641
42875W        W74091   9.693   6.843   0.999 -0.1560 -0.3449  0.0933
42876W        W74092  15.274  25.730   0.611 -0.0402 -0.0601  0.2125
42877W        W74093   4.527   8.909   1.420 -0.0407  0.1791  0.0869
42878W        W74094   4.639  14.911   8.447 -0.2692 -0.0619  0.0889
42879W        W74095  16.389   7.751   0.488  0.0983 -0.2604  0.0032
42880W        W74096  13.903  18.833   8.465 -0.2042  0.0988  0.0383
42881W        W74097  26.202  12.439   1.335  0.0203  0.2311 -0.0077
42882W        W74098  24.224  20.292   0.502  0.0705  0.1818 -0.1436
42883W        W74099  13.298  11.850   9.126  0.1278 -0.1104  0.0475
42884W        W74100  21.590   4.811   3.383  0.1165  0.2243  0.0098
42885W        W74101   8.719   9.091   8.181 -0.0291 -0.0717  0.2805
42886W        W74102  18.856  18.932   2.021  0.0823 -0.1211 -0.0964
42887W        W74103   1.661  12.435   0.854 -0.3763  0.1500  0.0997
42888W        W74104   1.381  26.689   8.182  0.0188 -0.0834 -0.0279
42889W        W74105  26.886  11.190   8.217  0.0406  0.2111 -0.0696
42890W        W74106  25.984  14.481   8.058 -0.2148 -0.0381  0.1098
42891W        W74107  14.807   9.582   2.400  0.0200 -0.1652  0.0108
42892W        W74108  21.018  10.685   9.544 -0.0962  0.1423 -0.1614
42893W        W74109  13.688   0.791   0.761 -0.0037 -0.1020  0.2661
42894W        W74110  15.344  21.290   3.168  0.0373 -0.2104  0.2607
42895W        W74111  16.951  23.271   2.457  0.0036 -0.0532  0.2380
42896W        W74112  14.690  27.074   3.105  0.1150  0.0517  0.0936
42897W        W74113  18.509  19.850   0.655  0.2674 -0.1095  0.4053
42898W        W74114   8.213   0.355   8.364  0.0859 -0.3264 -0.2379
42899W        W74115  19.654   2.954   9.171  0.1732 -0.1357 -0.0723
42900W        W74116   5.655  20.301   0.964 -0.1828 -0.4129  0.0812
42901W        W74117  12.591   2.356   8.537 -0.1005  0.2961 -0.1590
42902W        W74118   6.309  20.170   8.031  0.1360  0.1023  0.0762
42903W        W74119  19.055   0.228   1.620 -0.1082 -0.1043  0.3191
42904W        W74120  16.195  26.143   0.511  0.0499  0.0305  0.1315
42905W        W74121   5.057  26.886   2.629  0.4309 -0.1441 -0.1204
42906W        W74122   4.420  21.347   7.699 -0.0930  0.2663 -0.2112
42907W        W74123  10.779  19.636   9.425 -0.0278  0.0526 -0.3905
42908W        W74124  14.385  14.153   9.590  0.1076  0.1726 -0.1244
42909W        W74125  10.165  22.281   9.088  0.0388  0.0768  0.0165
42910W        W74126   0.762   9.990   3.232  0.1124  0.4541  0.2600
42911W        W74127  16.665  17.734   7.316  0.3467  0.0704 -0.3198
42912W        W74128  19.296  18.514   0.910 -0.0839  0.4540  0.0987
42913W        W74129   9.557   3.290   9.546  0.0432  0.0431 -0.1460
42914W        W74130  17.967  14.505   9.433 -0.1423  0.0242  0.2179
42915W        W74131   3.820   6.646   2.473 -0.5091  0.3078 -0.1850
42916W        W74132  14.736   6.037   1.339 -0.1893 -0.1974  0.1089
42917W        W74133   6.669  23.259   2.285 -0.4311  0.0939 -0.1222
42918W        W74134   1.880  15.011   9.544  0.2502  0.1793  0.1827
42919W        W74135  27.046  10.142   8.323 -0.2234  0.1823  0.0274
42920W        W74136   7.077  17.669   1.846  0.1069  0.1367 -0.2425
42921W        W74137   3.329  14.141   9.835  0.2544  0.3398  0.0319
42922W        W74138  16.784   9.839   2.901  0.3107 -0.2089  0.1837
42923W        W74139  19.346  14.453   3.097  0.1720  0.2112  0.0901
42924W        W74140  12.106   2.813   0.922 -0.1819 -0.2242 -0.0382
42925W        W74141  10.935  16.406   1.539 -0.0143 -0.0781  0.0695
42926W        W74142   8.685  27.170   0.740  0.3346  0.1920 -0.2421
42927W        W74143   0.249  17.882   1.177 -0.1924 -0.1225 -0.2969
42928W        W74144   8.627   0.199   1.226 -0.2874  0.1853  0.0585
42929W        W74145   0.742  20.986   0.260 -0.4064  0.1160 -0.0130
42930W        W74146  21.121   5.718   9.147 -0.1772  0.1263  0.0431
42931W        W74147   0.922  11.249  10.103  0.0238  0.2544 -0.1228
42932W        W74148  21.317  14.611   9.756 -0.0761 -0.4116  0.3267
42933W        W74149   7.158  21.052   0.022  0.1763  0.0118  0.2055
42934W        W74150  12.523  12.157   2.303  0.0894  0.0883 -0.2942
42935W        W74151   9.330   2.217  10.099 -0.0803 -0.0820  0.0736
42936W        W74152  22.956  18.995   9.165 -0.1133 -0.0155  0.0411
42937W        W74153  22.569  22.577   0.502  0.0082  0.0249 -0.1939
42938W        W74154   5.014   2.320  10.039 -0.1312  0.0527  0.0759
42939W        W74155  11.880  19.030   9.401  0.1522  0.0598 -0.0439
42940W        W74156  16.732  26.195   8.619  0.0095 -0.4140  0.1447
42941W        W74157   9.079  11.002   9.583 -0.1719  0.1260  0.0543
42942W        W74158  15.602   1.817   8.719 -0.1192 -0.3390 -0.0714
42943W        W74159   7.761  12.331   0.733 -0.0217  0.2891 -0.0379
42944W        W74160  13.283   2.886   3.148  0.0940  0.0142 -0.1198
42945W        W74161  21.257   5.719   1.275 -0.2980 -0.1034 -0.3282
42946W        W74162  12.600  17.604   2.379  0.0470 -0.0726 -0.1331
42947W        W74163   6.765   1.173   9.297  0.3872 -0.0328 -0.1846
42948W        W74164  19.131   6.807   7.881  0.3973  0.2537  0.1865
42949W        W74165  12.129   6.115   2.751 -0.1437 -0.0996 -0.1835
42950W        W74166   9.855  18.621  10.498 -0.1358  0.1901  0.1670
42951W        W74167  13.441  22.604   9.760 -0.1320  0.0555 -0.0611
42952W        W74168  27.474  23.811   7.995  0.2637  0.0069  0.0310
42953W        W74169   2.187  17.973   1.093  0.1488 -0.1592 -0.1587
42954W        W74170   6.487  16.595   1.837 -0.0696 -0.1537 -0.0433
42955W        W74171  18.058   5.859   2.256  0.0543 -0.0752 -0.0702
42956W        W74172  13.461   1.907   0.152  0.2557 -0.0379  0.2378
42957W        W74173  12.311  23.209   9.913  0.0312 -0.1244 -0.1626
42958W        W74174  11.671   7.105   2.452 -0.1035  0.0090  0.1354
42959W        W74175  26.796  15.359   9.578  0.2032 -0.0225 -0.0249
42960W        W74176  24.789  12.565   1.147 -0.0393 -0.1689  0.0324
42961W        W74177   7.934  11.836   1.484  0.3993 -0.2363  0.2263
42962W        W74178  18.633  14.235   0.129  0.0202  0.3040 -0.0061
42963W        W74179  11.078  26.917   2.089 -0.1990  0.3628  0.0410
42964W        W74180  10.043  18.796   1.237  0.0241 -0.2420 -0.0792
42965W        W74181  11.384  24.233   1.373 -0.2204 -0.1384 -0.0427
42966W        W74182  18.014   4.928   2.239  0.0957  0.0341 -0.2174
42967W        W74183   6.832   2.524   1.461 -0.3291 -0.1582 -0.0595
42968W        W74184  23.573   0.151  10.439 -0.0679 -0.0265 -0.0976
42969W        W74185  16.414  15.114   2.035 -0.2927  0.2021  0.2955
42970W        W74186  18.179  19.351   3.209 -0.3107 -0.4268  0.0093
42971W        W74187  14.975  22.575   0.820  0.4503 -0.5205  0.3449
42972W        W74188   5.314  11.028   7.825  0.2092  0.3779 -0.0883
42973W        W74189   9.751   6.032   9.951 -0.1281  0.3275  0.0814
42974W        W74190  16.527   6.789  10.505  0.0749  0.1582  0.0203
42975W        W74191  20.157   5.556  10.410  0.2163  0.1640 -0.0624
42976W        W74192  16.739  12.451   2.705  0.0434  0.0412 -0.1467
42977W        W74193  21.186  26.482   1.165  0.0953  0.0857  0.0241
42978W        W74194  23.291  10.627   0.639  0.2024  0.3025 -0.2137
42979W        W74195  24.879   1.012   2.585 -0.0875  0.0227  0.0110
42980W        W74196  13.461  17.713   7.986  0.2691  0.0194 -0.1583
42981W        W74197  24.269  16.142   8.774  0.1980 -0.0907 -0.0204
42982W        W74198  21.661  19.011   8.925 -0.0376 -0.0846  0.0899
42983W        W74199  19.371  20.340   9.692  0.0285 -0.0409  0.1105
42984W        W74200   5.982  11.063   1.934 -0.1278  0.1462  0.1650
42985W        W74201  25.060  12.953   1.225 -0.2261 -0.2379  0.1569
42986W        W74202  14.054  23.286   2.267 -0.0207 -0.0362 -0.1163
42987W        W74203   7.098   3.013   2.674 -0.1922  0.1415  0.2490
42988W        W74204  16.114   3.483   7.167 -0.0218 -0.1752  0.2046
42989W        W74205   0.313  24.699   2.724 -0.1352 -0.2870 -0.3761
42990W        W74206  18.530   0.161   1.505  0.1619  0.0286 -0.2570
42991W        W74207  13.722  22.134   9.317 -0.0471 -0.3937  0.0733
42992W        W74208  24.435  25.151   9.451 -0.1105  0.0066 -0.1113
42993W        W74209  18.087   0.701   2.410 -0.0652 -0.0218  0.4519
42994W        W74210  25.627   2.376   2.297  0.4755  0.0047  0.3833
42995W        W74211  19.501   8.224   0.612  0.2675  0.1237 -0.0306
42996W        W74212  17.314  22.601   0.869  0.3860  0.0605  0.0543
42997W        W74213  20.791   9.786   1.525 -0.0598 -0.1655 -0.1603
42998W        W74214  10.414  10.286   9.631 -0.2366  0.0610  0.0442
42999W        W74215  14.925  23.329  10.476  0.0754  0.1566 -0.0792
43000W        W74216  18.545   0.998   0.517  0.1285  0.5451  0.2774
43001W        W74217  12.142  26.391   0.251  0.0656 -0.0159 -0.2139
43002W        W74218  13.197  25.524   0.806 -0.0509 -0.0399 -0.1058
43003W        W74219  25.369  23.908   0.445 -0.1236  0.2464  0.2091
43004W        W74220  13.654  27.552  10.385 -0.3841  0.2862  0.3187
43005W        W74221   5.345  11.929   8.173 -0.2911  0.1132  0.1712
43006W        W74222  15.302  24.529   9.990 -0.0556  0.0673  0.2803
43007W        W74223   7.010  11.492  10.447 -0.0058  0.1287  0.1382
43008W        W74224  15.232   8.557   0.516  0.2742  0.1020 -0.0143
43009W        W74225  24.771  10.298   0.593  0.0881  0.0279  0.2599
43010W        W74226   9.933  18.300   0.381  0.1438 -0.1050 -0.0581
43011W        W74227  20.597  11.643   8.331 -0.0811  0.5385 -0.0930
43012W        W74228  11.534   7.829   3.077  0.0020  0.0054 -0.4003
43013W        W74229   3.106   0.879  10.075 -0.2054 -0.0813 -0.1149
43014W        W74230  13.295  12.531   3.463 -0.2760  0.0184 -0.2008
43015W        W74231  24.488  10.652   8.881 -0.0198 -0.0925 -0.1703
43016W        W74232  27.499  10.340  10.022  0.0030  0.1792  0.1596
43017W        W74233   7.864  26.732   9.762  0.2742  0.0934  0.1868
43018W        W74234  26.423  14.285   1.560  0.1008  0.0749 -0.0201
43019W        W74235   1.794  20.726   8.327 -0.0733 -0.2363  0.1027
43020W        W74236   6.968   9.822   1.618 -0.3325  0.0408 -0.0683
43021W        W74237  15.569  17.065   9.988 -0.0584  0.3879  0.1803
43022W        W74238  25.965  11.968   0.111 -0.2026 -0.1216  0.2589
43023W        W74239  15.114  26.293   8.933 -0.4020 -0.2568 -0.2157
43024W        W74240  19.530   8.271   8.527 -0.0081  0.0558  0.2443
43025W        W74241  10.328   7.104   3.517 -0.0277 -0.1040 -0.1445
43026W        W74242   7.471  26.495   1.512  0.3560  0.1779  0.1638
43027W        W74243  18.877  14.166   9.762  0.0263 -0.4211  0.0547
43028W        W74244  16.171  11.442   2.096  0.1977  0.1616 -0.1814
43029W        W74245  10.136  24.485   8.710  0.0347  0.2487 -0.2440
43030W        W74246   1.460  26.705  10.023 -0.0284  0.0420  0.2165
43031W        W74247  23.613  18.527   0.121  0.0178 -0.3844 -0.0382
43032W        W74248   7.921  19.659   0.398  0.1777  0.1436  0.1943
43033W        W74249  14.540  17.616   1.635  0.2322 -0.0374 -0.3958
43034W        W74250  11.903  17.741  10.215 -0.1915  0.0066 -0.0059
43035W        W74251  24.469  16.383   9.199 -0.1938 -0.1941 -0.2578
43036W        W74252   6.645  14.961   8.864  0.1372 -0.3605  0.0475
43037W        W74253  19.369  19.872   0.944 -0.1611  0.3313  0.3461
43038W        W74254  21.119  17.108   2.746  0.1532  0.1121  0.0100
43039W        W74255  24.359   5.812   0.725 -0.0211  0.2086  0.1787
43040W        W74256  16.101   5.385   0.946  0.3412  0.1977  0.0724
43041W        W74257   7.568   5.386   2.611  0.0061 -0.1554  0.1939
43042W        W74258  23.330  15.590   0.811  0.0717  0.2140  0.1805
43043W        W74259  17.546  20.995   8.778 -0.2288  0.1277  0.0989
43044W        W74260  22.434   6.415   1.927  0.0354  0.3266 -0.2902
43045W        W74261   1.953   5.521   1.009 -0.0777 -0.0186 -0.3303
43046W        W74262  18.769  21.041   9.252 -0.0126 -0.0913 -0.2040
43047W        W74263  12.474  26.524   3.957  0.2327  0.1107 -0.0234
43048W        W74264  16.489  16.365  10.444 -0.0229 -0.1387  0.0080
43049W        W74265  16.486  23.408   8.498 -0.0843 -0.2537  0.0205
43050W        W74266  16.035  15.240   2.685  0.1847  0.2662  0.0855
43051W        W74267  11.637  22.339   2.617 -0.1168 -0.1833  0.1397
43052W        W74268  12.115  12.260   1.348  0.1930  0.0225  0.0659
43053W        W74269  22.119  21.813  10.065 -0.2846  0.0022  0.1080
43054W        W74270  21.674  14.614   8.238 -0.0938 -0.3065  0.0917
43055W        W74271  18.395  26.258   8.985 -0.1630  0.2167 -0.1196
43056W        W74272   0.884  23.058   0.567  0.1841 -0.0812  0.1651
43057W        W74273  20.425  19.130   1.281  0.2366  0.0030 -0.1206
43058W        W74274  14.239   9.658   1.232  0.0984 -0.0237  0.2859
43059W        W74275   0.646  26.486   0.053 -0.1905  0.1249 -0.0471
43060W        W74276  11.017  18.674   2.706 -0.0458  0.0167  0.1406
43061W        W74277  13.747  22.215   9.804  0.0513  0.0545  0.1553
43062W        W74278   0.479  16.586   3.578  0.0455  0.3701  0.2150
43063W        W74279  19.703   7.658   3.216 -0.1131 -0.1896 -0.0781
43064W        W74280   7.893  24.227  10.341 -0.0536  0.1345 -0.0067
43065W        W74281   9.754   6.685  10.240 -0.0152 -0.0546 -0.3215
43066W        W74282  11.011  21.694  10.140  0.2079 -0.1982 -0.1227
43067W        W74283  18.611   2.735   1.268 -0.3635 -0.2503 -0.2348
43068W        W74284  15.106   8.501   2.315 -0.1188  0.0505  0.0382
43069W        W74285  23.123  14.265  10.277  0.1081 -0.2066  0.1357
43070W        W74286   0.178  18.511   2.718 -0.0150 -0.0516 -0.0390
43071W        W74287  24.137  16.610   9.613  0.2649 -0.1797 -0.3950
43072W        W74288   8.975  13.644   1.723  0.2983  0.0228 -0.1878
43073W        W74289  21.489  25.010   2.289  0.2231  0.1155 -0.0338
43074W        W74290  20.014  18.920   1.533 -0.0849 -0.0511 -0.0699
43075W        W74291  16.344  27.498   0.657  0.0146 -0.1076 -0.0127
43076W        W74292  19.787  11.458   2.803 -0.0307  0.0518  0.2051
43077W        W74293  20.981   0.484   1.954  0.2468 -0.2266 -0.0572
43078W        W74294   4.598   0.216   4.011  0.0191  0.2696 -0.3293
43079W        W74295   2.364  10.550   0.933  0.1472  0.0018 -0.1524
43080W        W74296  22.366   5.284  10.062  0.3847  0.1309  0.2616
43081W        W74297  22.045  13.561   0.473 -0.0882 -0.0235 -0.1118
43082W        W74298   7.749   7.443   0.323  0.1103  0.0851 -0.1777
43083W        W74299   3.211  10.170   0.476  0.2277 -0.0602  0.2058
43084W        W74300  24.430  11.297   0.023  0.0677  0.1498  0.1861
43085W        W74301  14.832  19.673  10.122  0.3544 -0.1182  0.0104
43086W        W74302   6.764  18.725   8.125  0.4546  0.2314  0.2176
43087W        W74303  26.016   3.356   3.738  0.1289 -0.2803 -0.0964
43088W        W74304   6.173  14.338  10.072  0.1466  0.1012  0.1313
43089W        W74305  12.021  20.611   7.715 -0.1075 -0.2825  0.0526
43090W        W74306  27.591   0.515   2.238 -0.1492  0.0738  0.2630
43091W        W74307  10.057   9.427   1.144  0.0678  0.0100  0.0799
43092W        W74308   4.002  18.803   9.323 -0.2723 -0.0554 -0.2210
43093W        W74309   9.007   0.354   3.189  0.0160 -0.1136  0.0739
43094W        W74310  24.722  17.187   9.365 -0.2761  0.3522  0.1354
43095W        W74311  25.526  13.454   8.143  0.0626  0.1337 -0.2313
43096W        W74312   3.349   0.110   8.986  0.0850  0.0013 -0.0929
43097W        W74313   0.507  20.123   1.203  0.0382  0.2833 -0.2841
43098W        W74314  17.903  10.263   0.880 -0.1000  0.1498  0.1477
43099W        W74315  14.729  19.229   2.088  0.3357  0.1687 -0.0587
43100W        W74316  16.002  21.786   9.846  0.3540 -0.0322 -0.0706
43101W        W74317  21.962   7.947  10.150 -0.0220 -0.1865  0.1200
43102W        W74318  23.644   1.828   9.015  0.0213 -0.1899  0.2084
43103W        W74319   5.896  23.601  10.279  0.0690  0.5507 -0.1728
43104W        W74320  27.248   7.771   2.710  0.0222 -0.2858  0.0285
43105W        W74321   0.954  23.348   0.161 -0.0721 -0.4107  0.2695
43106W        W74322   7.012  20.481   9.610 -0.0162 -0.1593  0.0232
43107W        W74323  15.333  17.296   3.095  0.0365  0.1083  0.1633
43108W        W74324   2.517  11.273   8.059  0.2105 -0.0962 -0.2805
43109W        W74325  14.568  16.441   2.708 -0.0576 -0.0917 -0.0887
43110W        W74326  21.250  22.943   1.271  0.3905 -0.0250  0.1476
43111W        W74327  13.386  27.420   1.004  0.0564 -0.1021 -0.2783
43112W        W74328  25.426   3.903   9.128  0.0321  0.1927 -0.2569
43113W        W74329  23.292  25.751   9.652  0.0195  0.2890 -0.1577
43114W        W74330  18.585  10.688   1.485  0.1001 -0.0924 -0.0592
43115W        W74331  18.947  17.798   0.672  0.0740  0.0420  0.1648
43116W        W74332   0.413  16.213   0.670  0.0439 -0.0538 -0.0219
43117W        W74333  21.568  11.184   1.269 -0.0723 -0.1606  0.3027
43118W        W74334   0.570   4.304   2.296 -0.1047 -0.0473 -0.2283
43119W        W74335  11.335  18.341   9.670  0.1458 -0.1824  0.3300
43120W        W74336  12.542   6.295   9.269 -0.0771 -0.1666  0.3212
43121W        W74337  15.783  23.907   0.253 -0.1821 -0.2845 -0.1715
43122W        W74338   7.485  26.210   2.403 -0.2740 -0.2801  0.0836
43123W        W74339  18.758  22.134   3.618 -0.2404 -0.1411  0.0376
43124W        W74340  13.269   2.515   3.426 -0.0878  0.3323  0.1108
43125W        W74341   6.473  13.202   7.518 -0.3566 -0.1085  0.2554
43126W        W74342  23.384  17.930   8.770  0.1105  0.1276 -0.2363
43127W        W74343   5.379  21.445  10.024 -0.0370  0.1793  0.0841
43128W        W74344  21.884   4.193   8.105  0.2618 -0.1289 -0.2102
43129W        W74345  12.001  14.177   1.625 -0.0629  0.0218 -0.1431
43130W        W74346  11.209  20.712  10.281 -0.5285  0.1904  0.4060
43131W        W74347  14.278   9.387   0.744  0.0774  0.1965 -0.0665
43132W        W74348   3.820   0.487   3.141 -0.2845 -0.0489 -0.0741
43133W        W74349  22.884   6.349   9.925  0.0053  0.0369  0.2118
43134W        W74350  27.062   0.592   1.107  0.0834 -0.2081 -0.2165
43135W        W74351  26.510  22.792   7.632  0.1301  0.0676 -0.0809
43136W        W74352  26.873   7.118   8.165 -0.2559  0.0949 -0.1737
43137W        W74353   1.625  10.824   1.181  0.3856 -0.0177  0.1894
43138W        W74354   3.752  20.768   3.000  0.2791  0.0056 -0.0361
43139W        W74355  21.765  15.762   2.569 -0.2594  0.0475 -0.4311
43140W        W74356  18.931  25.979   2.770 -0.0576 -0.0949  0.0030
43141W        W74357  20.068   8.764   1.985  0.2640 -0.0398  0.0125
43142W        W74358  15.756  16.807   9.551  0.4992 -0.1040  0.2665
43143W        W74359  16.638   3.715   3.441  0.2953 -0.2317 -0.1274
43144W        W74360  26.148  25.623   9.918 -0.1874 -0.2510  0.0127
43145W        W74361  12.940  12.134   9.294 -0.2026  0.0761  0.0046
43146W        W74362  11.555   1.614   1.004  0.0455  0.0789 -0.0820
43147W        W74363   4.592  14.334  10.459  0.1938 -0.1250  0.1148
43148W        W74364  12.908  20.150   2.682  0.1609  0.0922 -0.1237
43149W        W74365   0.841  11.200   7.936 -0.0343 -0.0432 -0.2630
43150W        W74366  11.523  18.075   3.550 -0.2311 -0.2198 -0.1244
43151W        W74367  12.556   9.548   3.292  0.2419  0.1804 -0.1131
43152W        W74368  22.427   5.536   7.610  0.2848  0.2199  0.0366
43153W        W74369   2.119  13.663   0.563  0.1013 -0.0639  0.0101
43154W        W74370   9.948  20.161   1.170  0.3406 -0.0180 -0.0819
43155W        W74371  18.589  11.126   9.420  0.1268 -0.0878 -0.0885
43156W        W74372  23.757  15.773   7.660  0.2562  0.1082 -0.1714
43157W        W74373   6.644  18.033   7.391 -0.1113  0.1576  0.0307
43158W        W74374  23.304  20.194   1.078  0.0181  0.4678  0.1770
43159W        W74375  17.452   2.931   8.235 -0.0578  0.3472  0.1418
43160W        W74376  18.896   5.456   9.512  0.0630  0.3519  0.2742
43161W        W74377   1.747  18.956   1.627 -0.2056  0.3381 -0.2783
43162W        W74378   0.570   7.222   0.606  0.3112  0.4383  0.1530
43163W        W74379   3.572  19.915   0.672  0.1500 -0.0843 -0.2243
43164W        W74380  23.585   0.453   0.248  0.0103  0.0118 -0.0761
43165W        W74381   7.977  13.769  10.466 -0.1056  0.0422  0.3300
43166W        W74382  16.488  23.147   3.928  0.0284 -0.1141  0.2622
43167W        W74383  19.100  11.941  10.167 -0.3007  0.2647  0.2577
43168W        W74384  24.714  14.611   8.523 -0.1234 -0.0607  0.0697
43169W        W74385  12.986   7.581   7.902 -0.0643  0.0306  0.0334
43170W        W74386  11.959  24.359   3.048 -0.1427 -0.1096 -0.4142
43171W        W74387   9.417   5.916   1.998  0.2117 -0.0686 -0.0947
43172W        W74388  13.259  17.035   0.469 -0.0143  0.0893 -0.2878
43173W        W74389  17.331  20.247   2.163 -0.2113  0.1781  0.0730
43174W        W74390  21.502  23.954   2.703 -0.3022 -0.2726  0.0670
43175W        W74391  19.739  12.159   1.231  0.0584 -0.2233  0.3019
43176W        W74392   6.731  17.136   3.347 -0.0156 -0.0107 -0.3325
43177W        W74393  19.713   9.225   0.424  0.1021 -0.1652 -0.0497
43178W        W74394  15.760  27.401   9.330 -0.2489 -0.1922  0.1813
43179W        W74395  25.207  25.124   8.742 -0.0346  0.0016 -0.0216
43180W        W74396   0.883  25.994   1.056 -0.0401 -0.1448  0.1963
43181W        W74397   6.364  15.204   8.003  0.0748 -0.2709 -0.0519
43182W        W74398  18.019  17.647   0.627  0.0696  0.1329 -0.2560
43183W        W74399  10.702  10.961   1.313  0.1615  0.2460  0.1057
43184W        W74400  20.804   6.752   9.857 -0.0191 -0.1713  0.1264
43185W        W74401  26.537  11.140   9.251  0.1165 -0.1651 -0.3793
43186W        W74402  17.938   1.838   3.381 -0.1114 -0.0722  0.2679
43187W        W74403  10.432   9.262   2.925 -0.1755  0.0712  0.1994
43188W        W74404   0.509  19.537   7.952  0.2213  0.3599  0.0932
43189W        W74405  16.838  26.547   0.290 -0.0475 -0.3514 -0.2799
43190W        W74406   7.398   7.937   7.444 -0.0034  0.1556 -0.2640
43191W        W74407   9.815  13.311   8.827  0.3569 -0.2554  0.0346
43192W        W74408  22.060  15.016   2.171  0.1568  0.2915 -0.0192
43193W        W74409   1.502  16.626   0.267 -0.1541 -0.0239  0.0282
43194W        W74410  15.535  26.452   1.749  0.2320 -0.1287  0.2287
43195W        W74411   1.014  14.927   2.239  0.0689 -0.0119 -0.0486
43196W        W74412  21.997   1.031  10.333 -0.1400  0.3205  0.0254
43197W        W74413   5.323   3.803   1.213 -0.0283 -0.2109  0.4595
43198W        W74414  22.277  17.357   1.626 -0.0130 -0.1942  0.0638
43199W        W74415  11.571   6.781   0.601 -0.2143 -0.2818  0.0840
43200W        W74416  17.304  23.093   3.827 -0.1146  0.1173 -0.2750
43201W        W74417  19.283  21.445  10.438  0.0584  0.3427  0.3390
43202W        W74418  14.547  17.486   1.062 -0.0722  0.3140  0.3548
43203W        W74419  12.850  13.016   0.133 -0.1445  0.0525 -0.3066
43204W        W74420  26.662   1.063   1.239 -0.0573  0.0828  0.1649
43205W        W74421  13.231   0.961   1.493 -0.2205  0.0182  0.0091
43206W        W74422   7.345  13.598   1.612  0.2363  0.0191  0.3228
43207W        W74423  21.545   1.992   7.769  0.0187 -0.0013  0.0608
43208W        W74424  13.123   1.885   0.623  0.0389 -0.0933  0.1239
43209W        W74425  24.745  11.303   1.843  0.3023  0.0544 -0.0300
43210W        W74426   3.362  17.194   9.128  0.0913 -0.0147  0.1555
43211W        W74427   3.977  22.164   0.123  0.0918 -0.4956 -0.0940
43212W        W74428  11.785  11.424   9.514  0.1027  0.1276  0.1595
43213W        W74429  10.025  15.030   8.897 -0.1979 -0.0010  0.0105
43214W        W74430   8.687  20.647   0.655  0.2160  0.2909 -0.1028
43215W        W74431  17.723  12.148   7.588  0.1308  0.0488 -0.0906
43216W        W74432  16.215   2.600   1.328 -0.1846 -0.1070  0.0832
43217W        W74433  13.320  13.497   8.869  0.3386 -0.0010 -0.4402
43218W        W74434  17.233   3.183   0.064  0.2130 -0.0913  0.2337
43219W        W74435   6.394  25.450   9.844  0.1310  0.0236 -0.0128
43220W        W74436  12.746   9.503  10.148 -0.0636  0.2237 -0.0261
43221W        W74437   4.362   2.185   0.142  0.3383 -0.2997  0.0005
43222W        W74438  14.678  22.384   9.236 -0.1663 -0.1903 -0.1238
43223W        W74439  27.194  20.532   7.552  0.1808  0.3908 -0.0003
43224W        W74440   6.053   0.060   9.726  0.0224 -0.0797  0.0768
43225W        W74441  12.461  12.454   8.590 -0.1181 -0.4722  0.0163
43226W        W74442   2.045   9.130   8.683 -0.2166  0.0359  0.0386
43227W        W74443  10.125   7.084   1.200  0.2483  0.2611 -0.0471
43228W        W74444  26.583   8.066   7.425 -0.3365 -0.2864  0.1704
43229W        W74445   5.529  17.653   2.783 -0.1818 -0.0345  0.0586
43230W        W74446  20.144  26.853   0.642 -0.0800  0.4119  0.1389
43231W        W74447   7.778  24.692   8.777  0.2238 -0.0519  0.1597
43232W        W74448   4.846   3.181   9.689  0.0525  0.1372 -0.0795
43233W        W74449  15.220  20.560   2.409  0.1209 -0.2993 -0.0254
43234W        W74450  23.962  11.093   8.548 -0.0288  0.0077  0.2769
43235W        W74451  18.309   2.741   8.890 -0.2360  0.1260  0.0755
43236W        W74452  27.183  17.577   1.116 -0.3423  0.3291 -0.1677
43237W        W74453  13.682  12.582   8.551  0.2198 -0.0106 -0.0244
43238W        W74454  23.196   1.462   2.746  0.2499 -0.2150  0.0790
43239W        W74455  16.297  21.957  10.248 -0.0742  0.1534 -0.0570
43240W        W74456  18.119   0.726   7.576 -0.0637  0.1324 -0.1962
43241W        W74457  21.877  24.953   8.299  0.0468  0.0500  0.0324
43242W        W74458   6.482  22.416   2.813 -0.0394 -0.0334  0.1469
43243W        W74459  11.684  11.438   1.383  0.0114 -0.0236  0.0061
43244W        W74460   6.984   7.871   0.717 -0.0621  0.1680 -0.1933
43245W        W74461  16.537  19.100   0.096 -0.1766  0.0259 -0.1396
43246W        W74462   1.795  20.218   1.790 -0.2001  0.2734 -0.2464
43247W        W74463   2.208  15.742   0.293  0.1464  0.2012 -0.0430
43248W        W74464   6.881  16.843   8.071 -0.0992 -0.1860 -0.0235
43249W        W74465  22.780   4.268   2.347 -0.0827  0.1016  0.0115
43250W        W74466  10.548  10.743  10.261 -0.0213  0.1902  0.3527
43251W        W74467  10.103   7.094   7.654  0.1006  0.4515 -0.1082
43252W        W74468   5.005  19.171   8.682 -0.0816  0.2908 -0.2478
43253W        W74469  12.229  13.578   3.152  0.1528 -0.0532 -0.0840
43254W        W74470  19.170   3.077   3.085 -0.0170  0.0260  0.1774
43255W        W74471  27.302  12.601   9.294 -0.0002 -0.2342 -0.0015
43256W        W74472  20.197   0.668   1.387  0.1424 -0.0006  0.0588
43257W        W74473  27.048  20.707   0.463  0.0494 -0.2073 -0.0608
43258W        W74474   8.200  17.974   0.683  0.1682 -0.1147 -0.6073
43259W        W74475   8.171  25.356   8.104  0.4700  0.0646 -0.0176
43260W        W74476  12.378  19.767   2.393 -0.1980 -0.1648 -0.0960
43261W        W74477  12.307  25.597   2.918  0.3371 -0.1327 -0.0154
43262W        W74478  15.471  19.472   0.804 -0.1152 -0.0160  0.3726
43263W        W74479  10.658   1.623   8.089  0.2411 -0.1312 -0.1021
43264W        W74480  18.654  12.465   0.584  0.0060  0.1038 -0.0469
43265W        W74481  19.366  15.336   9.255  0.1084 -0.1745 -0.3986
43266W        W74482  13.735  24.603   1.966  0.1825 -0.0946 -0.1006
43267W        W74483  25.127   4.707  10.522 -0.0080  0.1097  0.1941
43268W        W74484  12.739   8.637   1.381 -0.1231 -0.1664  0.1756
43269W        W74485  24.392  26.504   9.173 -0.2299  0.1365  0.3053
43270W        W74486  10.298  18.677   0.267  0.0909  0.2181 -0.0200
43271W        W74487  23.608  22.617   3.045  0.0411 -0.2039  0.1938
43272W        W74488  18.948   1.494   8.585 -0.1732 -0.2420  0.4160
43273W        W74489  15.408   9.791   1.276  0.1269  0.0356 -0.0778
43274W        W74490  22.422   5.960   1.671 -0.0195 -0.2794  0.1817
43275W        W74491  24.006  24.249   1.431  0.2177 -0.2714 -0.2567
43276W        W74492  23.627   6.338   9.955 -0.0245 -0.0470  0.1489
43277W        W74493   4.159  27.408   1.672 -0.1930 -0.0334  0.0903
43278W        W74494   2.215  13.712   3.136  0.0183 -0.3575 -0.1639
43279W        W74495  13.072   2.820   9.504 -0.1320  0.1907  0.2610
43280W        W74496  22.573   6.561   2.430 -0.0800  0.1336  0.0806
43281W        W74497   8.520   0.061   0.771 -0.0734 -0.0734 -0.1795
43282W        W74498   2.800  18.041   2.067 -0.0651  0.0752 -0.1440
43283W        W74499   8.680   5.799   2.078  0.3299 -0.1470  0.0508
43284W        W74500   0.928  10.684   7.988  0.1808  0.1945 -0.3002
43285W        W74501  15.183   2.187   1.625 -0.0256 -0.1537  0.0549
43286W        W74502  13.147  11.851   2.789 -0.1494  0.1547 -0.2770
43287W        W74503  14.479  20.796  10.081 -0.1179  0.1297 -0.0055
43288W        W74504  13.117  13.347   1.086 -0.0402 -0.1621 -0.0072
43289W        W74505   8.498  10.960  10.180  0.0261 -0.3020  0.1256
43290W        W74506  21.988   5.545  10.199 -0.0037  0.0504 -0.0795
43291W        W74507  12.858  12.383   0.947  0.2428  0.1108  0.0445
43292W        W74508  10.662  16.918   1.511 -0.2279  0.1837 -0.2205
43293W        W74509   5.807   2.362   3.633  0.2953  0.3079 -0.1693
43294W        W74510  24.057  24.576   8.864  0.3237 -0.0831 -0.2981
43295W        W74511   8.204   3.040   0.664 -0.2989 -0.0042  0.3069
43296W        W74512   0.389  14.424   0.317  0.0167  0.1355 -0.0030
43297W        W74513   3.075  23.411   0.689 -0.0687  0.0075  0.2817
43298W        W74514  27.257  10.783   0.881  0.1357  0.0269 -0.1690
43299W        W74515  15.446   8.933   1.501 -0.1297  0.0405  0.2036
43300W        W74516  16.813  26.182   0.646  0.2494 -0.0181  0.2056
43301W        W74517   0.583   4.493   7.977 -0.4559 -0.2291  0.0809
43302W        W74518  24.619  13.224   0.085 -0.0314 -0.1998 -0.2501
43303W        W74519  10.666  10.142  10.231 -0.1507  0.1207 -0.0224
43304W        W74520  15.916   1.640   3.021  0.0380  0.2449  0.0099
43305W        W74521  21.243  10.102   8.711  0.0900  0.2226 -0.0950
43306W        W74522  11.302  23.301   2.760  0.0434 -0.1267 -0.0027
43307W        W74523  14.202   7.151   7.816  0.0779 -0.0180 -0.0042
43308W        W74524  12.638  27.262   8.495  0.0528 -0.0775  0.0279
43309W        W74525  24.307   5.405   1.214  0.0859  0.0983 -0.0412
43310W        W74526  23.876  12.653   8.830 -0.1748 -0.0827 -0.0065
43311W        W74527  21.671   7.345   9.856  0.1346  0.0379  0.2054
43312W        W74528   2.538  17.604   0.314  0.0276 -0.2412  0.1278
43313W        W74529   1.491   9.818   1.355 -0.1012 -0.0932  0.3138
43314W        W74530  19.933   8.768   1.468  0.1214  0.1224 -0.2312
43315W        W74531  12.352  21.254   3.090 -0.0747  0.0410  0.0657
43316W        W74532  15.279  18.750   9.501 -0.3286  0.0946  0.0198
43317W        W74533  12.678  15.083   9.984  0.1430 -0.1175 -0.2089
43318W        W74534  24.878   9.921   8.864 -0.2468 -0.1367 -0.1023
43319W        W74535  23.370   7.805   9.914 -0.0158 -0.0396  0.2141
43320W        W74536   2.023  22.066   0.329 -0.0818  0.1312 -0.0711
43321W        W74537  25.676   4.193   9.474  0.0343 -0.1477 -0.0282
43322W        W74538  16.798  10.525   0.237 -0.2022 -0.4043  0.3646
43323W        W74539  15.755  24.840   0.006 -0.1336  0.1188  0.1182
43324W        W74540  25.381  15.106   1.046  0.1666  0.2984  0.3244
43325W        W74541   1.990   4.286  10.373 -0.1564  0.1102 -0.1132
43326W        W74542  23.007  25.265   2.357  0.0898  0.2006 -0.4240
43327W        W74543   9.164  26.746   0.786 -0.0701 -0.1016  0.0764
43328W        W74544  10.239  22.272   2.039  0.0908  0.0505 -0.2324
43329W        W74545  14.786   5.703   7.496  0.2247  0.1575 -0.1665
43330W        W74546  15.006   6.820   1.570 -0.3584  0.0476 -0.2420
43331W        W74547   3.988  18.456   9.825  0.1813  0.3050  0.0749
43332W        W74548  11.234   7.092   7.755 -0.1654  0.0661  0.1043
43333W        W74549   1.938  20.530   1.131 -0.2278 -0.0658 -0.2099
43334W        W74550   6.369   4.081  10.174  0.0247 -0.0444  0.0357
43335W        W74551   7.792   7.416   1.504 -0.1468  0.2492 -0.0577
43336W        W74552   8.252   1.788   1.320  0.4197 -0.0300  0.1110
43337W        W74553  23.053  10.942   7.545 -0.0495 -0.1371  0.0417
43338W        W74554  21.741  25.305   1.038  0.2536 -0.2064 -0.0896
43339W        W74555  23.232  12.237   2.391 -0.0253 -0.2102 -0.6084
43340W        W74556   6.840  11.891   9.638  0.1902 -0.2066 -0.0541
43341W        W74557  22.916   2.335   2.922 -0.1006 -0.3354  0.0991
43342W        W74558  26.435  20.050   2.194  0.1928 -0.2494  0.0416
43343W        W74559  24.952   4.955   7.931 -0.2225 -0.1720 -0.1137
43344W        W74560   5.458  16.922   0.200  0.0660 -0.2810  0.3329
43345W        W74561  23.766  23.311   9.025  0.0366  0.0345 -0.1819
43346W        W74562  24.285  17.671   0.843 -0.4001  0.0773  0.2838
43347W        W74563   2.693   2.381  10.428 -0.0290 -0.0707 -0.0409
43348W        W74564  23.286   6.843   9.744 -0.3871 -0.0576  0.0611
43349W        W74565   5.498  22.587   9.255  0.0511  0.0014 -0.0592
43350W        W74566  15.847   3.580   3.211 -0.2190 -0.0363  0.0118
43351W        W74567  20.527  17.956   8.879 -0.1120  0.1419  0.0238
43352W        W74568   2.902   8.154   3.034  0.3286  0.1194  0.1002
43353W        W74569   5.858   5.396  10.106 -0.0816  0.1702  0.3215
43354W        W74570  20.421   9.391   9.820 -0.0553 -0.0691 -0.1573
43355W        W74571  20.258  14.170   8.183  0.1143  0.1042 -0.0995
43356W        W74572   7.117   0.164   0.073 -0.1192 -0.3596  0.0429
43357W        W74573   9.431  23.198   7.534  0.1418  0.0174 -0.0875
43358W        W74574   6.379   5.348   7.337  0.2081 -0.0475 -0.0166
43359W        W74575   0.185  18.137   9.869 -0.0565  0.0850  0.2350
43360W        W74576  24.555  15.602   2.002 -0.0183  0.0553 -0.0310
43361W        W74577  20.704  11.220   8.824  0.1287 -0.2480  0.2121
43362W        W74578  10.944   9.134   1.918  0.2155 -0.1139 -0.3250
43363W        W74579  24.264  20.850   0.686 -0.0206 -0.0803  0.0131
43364W        W74580  18.710  13.515   1.981 -0.2830 -0.2164  0.2845
43365W        W74581   7.742   9.659   7.435  0.0852 -0.0957 -0.0764
43366W        W74582   6.481  15.447   2.402  0.1341  0.2129 -0.0464
43367W        W74583  22.507  14.883  10.337  0.1355  0.0980  0.2046
43368W        W74584   1.314  12.248   8.959 -0.1521  0.2514  0.2145
43369W        W74585  27.175  11.085   1.632 -0.0114  0.1423 -0.2008
43370W        W74586  11.850  19.478   3.520  0.1716 -0.0686 -0.1357
43371W        W74587   9.365  19.926   9.310 -0.0678 -0.0901  0.1222
43372W        W74588  18.845   7.335   7.702 -0.1218  0.0470  0.0623
43373W        W74589  22.600  21.407   1.551 -0.2035 -0.1840 -0.1217
43374W        W74590  25.001  26.539   1.984 -0.3286 -0.2060  0.2228
43375W        W74591   0.125  12.071   8.856  0.0937 -0.0672 -0.2971
43376W        W74592   6.128  15.270   9.887 -0.3914  0.0352  0.0194
43377W        W74593  26.627  26.627   9.340 -0.0395  0.3925  0.3106
43378W        W74594  19.209  20.336   1.035  0.3021  0.3442 -0.1859
43379W        W74595  16.848   6.659   0.778  0.3113  0.2748  0.0966
43380W        W74596  14.540  20.022  10.405  0.0301  0.1027  0.2010
43381W        W74597  20.320  10.322   9.920  0.0095 -0.1117  0.1426
43382W        W74598   5.424  24.755   3.533  0.0193  0.2295  0.0023
43383W        W74599   3.404   7.001   8.272  0.2119  0.1723  0.1962
43384W        W74600  22.908   1.610  10.277 -0.0220 -0.4471 -0.1609
43385W        W74601  11.766  25.498   0.150 -0.1615  0.0078  0.0030
43386W        W74602   7.332  16.212   9.537  0.0378 -0.0077 -0.1867
43387W        W74603  17.775  24.883   9.019  0.0490  0.1415 -0.2424
43388W        W74604  17.839  24.832   3.188 -0.2958  0.1384 -0.1676
43389W        W74605  23.896  26.170   0.204 -0.2617  0.0280  0.1192
43390W        W74606  25.684   4.614   2.192  0.0021  0.1417 -0.0042
43391W        W74607  10.329  11.907   8.672  0.1110  0.3374  0.0064
43392W        W74608  24.473   2.672  10.020 -0.1914 -0.4211  0.1449
43393W        W74609  12.123   5.024   8.688 -0.0418  0.3177 -0.0418
43394W        W74610  26.740  15.311   2.225  0.0023  0.0242  0.1005
43395W        W74611  22.151   2.830   2.509 -0.1327  0.1725 -0.0866
43396W        W74612   8.519   1.755   8.749  0.1742  0.3576 -0.2667
43397W        W74613  13.265  24.383   8.293  0.0286  0.0703  0.2329
43398W        W74614  27.381  20.359   0.510 -0.0951  0.1950  0.1054
43399W        W74615  25.248   1.618   3.164  0.1696 -0.2991  0.2490
43400W        W74616  21.913   1.014   9.812 -0.1455  0.1356 -0.1835
43401W        W74617   6.259  27.152   2.906 -0.1405 -0.0906  0.2115
43402W        W74618  13.370  20.543  10.254  0.1405 -0.2190 -0.0985
43403W        W74619  20.615  14.907   9.184 -0.3954  0.0036  0.0875
43404W        W74620  26.914   2.774   9.815  0.0307 -0.2745 -0.2262
43405W        W74621  19.299  16.335   7.963 -0.3243 -0.0330  0.1044
43406W        W74622   5.473  20.822   2.093  0.0058  0.0318  0.0978
43407W        W74623  15.093  20.196   0.040  0.3195 -0.0259 -0.1107
43408W        W74624  27.002   1.561   2.046  0.3375 -0.2071  0.0255
43409W        W74625  19.962   2.814   1.057  0.0436 -0.0304 -0.0707
43410W        W74626  15.136   2.459  10.396 -0.0710 -0.1370 -0.1249
43411W        W74627  23.721   8.726   8.547  0.1854 -0.0072  0.0085
43412W        W74628   9.075  17.028   1.233  0.4666 -0.1026  0.0944
43413W        W74629  18.337  23.396   0.658  0.1781  0.0404  0.3975
43414W        W74630  26.762   0.135   1.061 -0.1713 -0.0464  0.0453
43415W        W74631  13.572  19.552   9.208 -0.0237  0.0936 -0.0495
43416W        W74632  11.793  26.730   1.070 -0.0722  0.0827  0.1670
43417W        W74633  11.428  11.112   3.010  0.0746  0.2616  0.1570
43418W        W74634   2.177  16.502   2.071  0.0130  0.3601 -0.0562
43419W        W74635  15.127  26.822   1.147  0.1627 -0.3536 -0.0896
43420W        W74636  16.733  26.386   9.304  0.2265  0.2338  0.0438
43421W        W74637   0.780  20.102   3.082 -0.2964 -0.0800  0.0615
43422W        W74638   8.533  21.544   3.476  0.0812  0.2449 -0.2623
43423W        W74639  26.855  27.052   8.331 -0.1436 -0.1400 -0.0461
43424W        W74640   1.450  14.358   8.873 -0.0086 -0.2214 -0.0784
43425W        W74641   7.857  14.768   2.228 -0.1259  0.1574 -0.0145
43426W        W74642  23.535  18.711   1.964  0.1436 -0.0516 -0.0341
43427W        W74643  26.094   1.638   9.217  0.3042 -0.1375  0.2669
43428W        W74644   7.585   9.276  10.349  0.3999  0.3854  0.4026
43429W        W74645   8.688   7.475  10.425 -0.0757 -0.2458  0.2220
43430W        W74646   1.839   4.454   9.072  0.0634 -0.1280 -0.0486
43431W        W74647  17.236  10.881   1.297 -0.2992 -0.0916 -0.1348
43432W        W74648  19.183  24.095   9.610 -0.1235  0.3160  0.0933
43433W        W74649  23.177  21.533   3.672  0.0779  0.0309  0.3406
43434W        W74650  17.153  10.717   2.706  0.0038 -0.0462  0.2493
43435W        W74651   8.362   6.848   3.141 -0.0359  0.0234  0.2324
43436W        W74652   0.713  25.498   8.630 -0.1495  0.0101  0.0879
43437W        W74653  20.369   5.073  10.062  0.2717  0.0870  0.0577
43438W        W74654   9.773  26.875   9.652  0.1709 -0.0238 -0.1601
43439W        W74655   0.258   4.904   2.595  0.1697 -0.1324 -0.3495
43440W        W74656  16.994   9.880   8.125 -0.0397 -0.0097 -0.1195
43441W        W74657  24.945   3.076   2.811 -0.2004  0.2178 -0.0479
43442W        W74658  24.308  24.119   1.019 -0.0234  0.1953  0.1962
43443W        W74659   1.149  25.180   0.385  0.0716  0.0552  0.0746
43444W        W74660  21.936   3.157   9.871  0.0628 -0.0586 -0.1286
43445W        W74661   0.212  13.348  10.139 -0.0928  0.3054 -0.0633
43446W        W74662   3.605  21.217   9.897  0.2187 -0.1314  0.0429
43447W        W74663   2.375  12.068   9.066 -0.1280 -0.2383 -0.2999
43448W        W74664  17.357  22.114   3.350  0.0404  0.3827 -0.0173
43449W        W74665  23.681  24.247   8.657  0.5708 -0.0889  0.2695
43450W        W74666  20.801  22.805   9.381 -0.1867  0.2081  0.0260
43451W        W74667   0.562   5.726   8.960 -0.4599  0.0279 -0.3440
43452W        W74668   1.734  14.917   7.639 -0.0887  0.3803 -0.0915
43453W        W74669   9.470   3.202   9.015  0.1262  0.1819  0.1838
43454W        W74670  22.299  16.586   8.485  0.0323  0.3875 -0.1887
43455W        W74671  18.746  14.058   1.396 -0.2088  0.0843 -0.1567
43456W        W74672   1.602   0.882   9.850  0.0257  0.4063  0.1720
43457W        W74673  18.694  23.941   7.901  0.0498  0.3239 -0.0936
43458W        W74674   4.816  15.333   2.983 -0.0662 -0.1679  0.1805
43459W        W74675  15.006  14.080   3.141 -0.3011 -0.2637 -0.1774
43460W        W74676  21.216   4.375   9.895  0.0699 -0.1767  0.0000
43461W        W74677  12.196  18.644   9.189  0.2626 -0.2778 -0.0575
43462W        W74678  26.705  17.455   2.194 -0.1400 -0.1524  0.0568
43463W        W74679   5.761   6.833   9.850 -0.1526  0.0082  0.1275
43464W        W74680  18.785  27.164   2.298  0.4819 -0.0932  0.0102
43465W        W74681  16.537   3.967   2.502 -0.0788  0.0116 -0.3177
43466W        W74682   7.353  23.060   9.370 -0.1567  0.2264  0.1809
43467W        W74683  17.468  25.331  10.101  0.2546  0.0401 -0.0164
43468W        W74684  19.847  21.127   9.846  0.0963 -0.3953 -0.0906
43469W        W74685  22.772  17.905   8.618 -0.3500 -0.1911  0.1136
43470W        W74686   0.721  16.415   2.174  0.3073 -0.0714 -0.0157
43471W        W74687  15.680   8.584   3.423 -0.0566  0.1897 -0.4535
43472W        W74688   4.157  16.824   2.678 -0.0842  0.3919  0.0812
43473W        W74689  21.705   5.606   8.566  0.1648 -0.0616  0.1750
43474W        W74690  18.554  11.362   3.747 -0.0182  0.0769  0.0707
43475W        W74691  24.462   3.343   3.461 -0.0609 -0.0476 -0.4695
43476W        W74692   2.095   9.770   2.504  0.2247 -0.2159 -0.0463
43477W        W74693  18.330  19.241   9.880  0.0935 -0.2343  0.0879
43478W        W74694  11.415  21.307   3.492 -0.1498 -0.0548 -0.0265
43479W        W74695  13.378  15.255   8.172 -0.1240  0.0006 -0.0488
43480W        W74696  26.542   8.296   2.974  0.0622 -0.1216  0.1442
43481W        W74697  16.230   1.724   2.452  0.0220  0.2143 -0.2710
43482W        W74698   1.623   6.818   1.481 -0.0242  0.0532  0.1089
43483W        W74699  23.024  15.125   0.750  0.0532 -0.0992  0.0547
43484W        W74700  15.742  21.358   3.956 -0.0334  0.5232 -0.1968
43485W        W74701  20.476  21.867   2.385  0.0305 -0.1172 -0.0947
43486W        W74702   6.732  16.136   8.132  0.2441 -0.2034  0.0669
43487W        W74703   8.054  14.082   0.562  0.0176 -0.2568  0.1879
43488W        W74704   0.646   8.760   2.382 -0.2027  0.2070  0.1747
43489W        W74705   2.182  18.761  10.046  0.0450 -0.0026 -0.3474
43490W        W74706  18.412   5.383   0.529  0.0146 -0.4012  0.0170
43491W        W74707  19.998   6.202   3.374 -0.4122  0.0323 -0.2167
43492W        W74708   5.699  23.676   9.098  0.0230  0.0408 -0.0488
43493W        W74709  25.995  19.727   8.752  0.2693 -0.0244 -0.0873
43494W        W74710  18.311  27.274   9.800  0.2436  0.1687  0.3200
43495W        W74711  12.593   6.704  10.128  0.0860 -0.2974  0.0983
43496W        W74712  24.120  18.272   1.697 -0.0612 -0.2605 -0.0775
43497W        W74713   8.262  15.418   8.076 -0.3194 -0.3691  0.4815
43498W        W74714  25.165   1.233   8.353 -0.1713  0.0215 -0.1786
43499W        W74715   2.054   8.209   2.382 -0.1090  0.1929  0.3093
43500W        W74716   2.432   9.408   2.945 -0.0091 -0.0046  0.0938
43501W        W74717   9.750   0.541   8.924  0.1490  0.1075  0.0445
43502W        W74718  21.889   1.536   8.503  0.2306  0.0074 -0.3856
43503W        W74719   1.638  15.622   8.485 -0.1139 -0.0100 -0.3145
43504W        W74720   1.895   0.538  10.155 -0.1999  0.1296  0.4507
43505W        W74721   8.215   7.337   0.041  0.0514 -0.2125  0.3885
43506W        W74722   0.860  25.876   8.233  0.0562  0.0186 -0.0471
43507W        W74723   3.615  14.504  10.119  0.1209 -0.0221 -0.3318
43508W        W74724  10.945  13.503   9.837  0.0762 -0.2920  0.0657
43509W        W74725   5.792  13.476   9.222 -0.1604 -0.0057  0.2102
43510W        W74726  12.688   4.294  10.035  0.1180 -0.1796 -0.2723
43511W        W74727  13.874  20.303   1.577  0.0016 -0.1837 -0.0805
43512W        W74728  11.518  24.119   3.399  0.1553 -0.0835  0.2050
43513W        W74729  25.492  14.643   0.395 -0.2340  0.0522 -0.1480
43514W        W74730  23.752  11.295   9.912 -0.0363  0.2799 -0.0075
43515W        W74731  10.893  15.739   9.762  0.2900  0.2196 -0.1966
43516W        W74732  19.314  13.299   2.779  0.3588  0.0235  0.1153
43517W        W74733   7.513  19.629   2.533  0.0408  0.2341 -0.0824
43518W        W74734   0.516  26.764   9.125 -0.1687  0.1196  0.4033
43519W        W74735  16.865   6.275   1.109  0.0832  0.1353 -0.3457
43520W        W74736  25.581  19.614   9.093  0.2109  0.1359  0.2436
43521W        W74737   6.026   4.837   9.141  0.0196 -0.0741 -0.1787
43522W        W74738   4.915  23.992   9.775  0.1609 -0.1790 -0.1608
43523W        W74739   7.135  15.566   1.365 -0.0520 -0.0949  0.0729
43524W        W74740  26.253  22.450   1.244  0.0451  0.0139  0.0677
43525W        W74741  18.748  19.122   1.535 -0.1624 -0.1602 -0.4844
43526W        W74742   3.208   0.817   2.815 -0.0735  0.3611  0.1689
43527W        W74743  20.530   8.102   1.471  0.0272  0.1528 -0.3332
43528W        W74744   7.391  16.332   0.853  0.0371 -0.1021  0.2394
43529W        W74745  18.145  19.461   3.747 -0.0828  0.3461  0.3783
43530W        W74746  14.577  21.096   7.462 -0.1781 -0.0475  0.0423
43531W        W74747  11.282  11.609   8.588  0.1383 -0.1405 -0.3217
43532W        W74748  25.237   0.350   3.204  0.0427 -0.3118 -0.1549
43533W        W74749  13.177  21.937   2.231  0.1612 -0.0344  0.0954
43534W        W74750  11.696   6.671   9.151  0.0182  0.2264  0.0346
43535W        W74751  17.659   0.997   0.073 -0.0654 -0.1775 -0.1258
43536W        W74752  14.083  27.101   2.875 -0.0052 -0.1195  0.0407
43537W        W74753   5.687   6.078   8.706  0.0857  0.0619  0.2332
43538W        W74754   1.312   1.215   9.626 -0.0061  0.1581 -0.1453
43539W        W74755  11.465   6.114   3.379  0.0917  0.1855  0.0925
43540W        W74756   7.674  25.957   8.384  0.2330  0.3544 -0.1520
43541W        W74757  21.779  12.033   1.760  0.1620  0.1076  0.0193
43542W        W74758   5.665   1.075  10.202  0.1304  0.0500 -0.1245
43543W        W74759   9.834  12.030  10.047  0.1512  0.3827 -0.1576
43544W        W74760  22.460   9.523   2.922  0.2394  0.1839 -0.2834
43545W        W74761  22.872  25.272   9.175  0.0114  0.1543  0.1510
43546W        W74762  21.302   1.470   0.571  0.0270 -0.1152 -0.2506
43547W        W74763  23.587   0.946   0.775  0.1948 -0.1538 -0.4577
43548W        W74764   2.312   8.431  10.139 -0.0272  0.2896  0.0278
43549W        W74765  23.684  22.293   9.300  0.0665  0.1408 -0.0563
43550W        W74766   0.555   1.539   1.543 -0.2140  0.0533 -0.1208
43551W        W74767   6.735  19.567   3.617 -0.0266  0.1040 -0.0299
43552W        W74768  23.458   6.105   2.953  0.4178 -0.2507 -0.1189
43553W        W74769   8.535  26.447   9.610  0.0817 -0.1833  0.2390
43554W        W74770  17.975  18.122   0.746 -0.0439  0.1598  0.0406
43555W        W74771  11.410   0.981   2.605 -0.0138  0.2133 -0.0011
43556W        W74772   6.542  22.797   9.400  0.1644  0.0795  0.2047
43557W        W74773  16.662   1.551   8.614 -0.2120  0.0735  0.1711
43558W        W74774  11.881   0.402   2.004  0.0527 -0.0784 -0.1147
43559W        W74775  19.728  19.008   2.016  0.0132 -0.1745 -0.0904
43560W        W74776  22.661  20.910   2.992 -0.2199 -0.0160 -0.3615
43561W        W74777  11.662   0.195   8.080  0.3034  0.4067  0.1064
43562W        W74778  15.085  14.742   2.573  0.1089  0.4130 -0.0497
43563W        W74779   1.618  12.463   2.219 -0.1547  0.0068 -0.1980
43564W        W74780  17.297   3.920   8.135  0.3146  0.1036 -0.2972
43565W        W74781  16.047  26.066   0.054 -0.0403  0.0875 -0.0638
43566W        W74782   1.780  22.875   1.213  0.0976 -0.2019 -0.0314
43567W        W74783   6.233  27.125   1.442  0.1265  0.0579  0.0429
43568W        W74784  24.673  13.444   1.372 -0.0266 -0.0247  0.2918
43569W        W74785  11.614  15.340  10.118  0.2110  0.1465  0.0815
43570W        W74786   5.465   9.750  10.075  0.1128 -0.0996 -0.3082
43571W        W74787   2.400  22.363   1.369 -0.1682  0.2291  0.0929
43572W        W74788  20.662  14.565   8.191 -0.3167 -0.0791  0.0909
43573W        W74789   4.059   6.269   0.366 -0.0787 -0.0201 -0.1103
43574W        W74790  20.075  19.929   9.424  0.1827  0.0486 -0.0233
43575W        W74791  17.957  24.586   8.158 -0.1327  0.0920  0.0889
43576W        W74792   2.647  20.578  10.177 -0.0642 -0.1654  0.0665
43577W        W74793   8.100  19.961   8.415 -0.2794  0.1165  0.0322
43578W        W74794   0.090  21.526  10.423 -0.3022 -0.1815  0.1079
43579W        W74795  18.398  15.949   0.404  0.0406 -0.1822 -0.2166
43580W        W74796   3.916  10.677  10.387 -0.0041  0.0527 -0.1073
43581W        W74797  19.592  25.787   1.980 -0.0175 -0.4108  0.5002
43582W        W74798  17.213   5.053   9.819 -0.0145 -0.0367 -0.0712
43583W        W74799  23.832   9.562  10.277  0.1155  0.0414  0.1817
43584W        W74800   7.426  22.684   1.471  0.5574 -0.0840 -0.4049
43585W        W74801  15.960  12.697   2.364  0.0634 -0.0516 -0.0466
43586W        W74802  27.136  13.120   0.112 -0.2078 -0.1146 -0.2158
43587W        W74803  21.873   4.208   2.259  0.0707  0.0332  0.1688
43588W        W74804  13.981  17.676   2.810  0.2955 -0.2309 -0.1324
43589W        W74805   1.640   4.739   3.448  0.3534 -0.3779 -0.0056
43590W        W74806  18.640  26.174   0.734 -0.0793  0.0440  0.0526
43591W        W74807   7.592  22.977   1.893  0.1806  0.1226  0.0980
43592W        W74808  13.433  12.886   9.659  0.0772  0.2698 -0.1567
43593W        W74809  23.531  19.745   2.901  0.1463  0.2157  0.0172
43594W        W74810   0.449   5.299   7.494  0.2083  0.0283  0.3713
43595W        W74811   8.785  18.719   9.990 -0.2642  0.2134  0.0920
43596W        W74812  19.695  24.807   9.019 -0.1478 -0.1558 -0.2834
43597W        W74813  13.517  20.211   1.912  0.2631 -0.0293 -0.1506
43598W        W74814  22.525  23.752   9.719  0.1907  0.0970  0.0401
43599W        W74815  20.896  25.911   9.443  0.1734 -0.4181  0.0350
43600W        W74816   3.291  20.531  10.388 -0.0520  0.0981  0.1022
43601W        W74817   8.351   1.508   2.688  0.0959 -0.1989  0.1521
43602W        W74818  11.882   5.568  10.358  0.0956  0.1077 -0.2988
43603W        W74819   9.348  13.911   2.718 -0.1411 -0.0203  0.0256
43604W        W74820  23.574   5.329   7.970 -0.0457  0.1098  0.0162
43605W        W74821  11.353  13.908   2.851 -0.1479 -0.0157  0.2372
43606W        W74822   6.438   4.549  10.370  0.3545 -0.0086 -0.1908
43607W        W74823  16.330   3.209  10.441  0.1592 -0.0834 -0.0973
43608W        W74824   9.389  25.860   0.058  0.0279  0.0665  0.1767
43609W        W74825  23.459  17.997   9.295 -0.0758 -0.3566  0.0782
43610W        W74826   6.413   2.159   9.781  0.0185 -0.2219  0.1890
43611W        W74827  21.062  10.518  10.025 -0.0369 -0.1334  0.2999
43612W        W74828  15.057   0.667   2.274 -0.0776 -0.0537 -0.0659
43613W        W74829  11.442   2.663   9.363 -0.0890  0.0739  0.2154
43614W        W74830   5.781   0.089   9.237  0.0050  0.4013  0.3438
43615W        W74831   6.208  10.826   8.529 -0.0133 -0.3238  0.0480
43616W        W74832  16.444   6.051  10.265 -0.2511 -0.3436  0.2334
43617W        W74833  22.547  11.677   1.007  0.1859  0.0976 -0.2530
43618W        W74834  15.779  19.016   7.518 -0.3605 -0.1473 -0.0136
43619W        W74835  14.512  11.500   2.715  0.0847 -0.1055  0.0202
43620W        W74836   7.229  20.316   8.752  0.0695  0.0635 -0.0070
43621W        W74837  14.947   6.603   9.097 -0.0114  0.0246 -0.1696
43622W        W74838   1.543  14.700  10.361 -0.0940 -0.1669 -0.2001
43623W        W74839   7.576   9.013   8.375 -0.2160  0.1161 -0.0297
43624W        W74840  14.130   3.273   8.024  0.0997 -0.2207  0.1118
43625W        W74841  15.619   7.303   1.997 -0.0532 -0.1651 -0.2517
43626W        W74842   6.029   7.885   8.678  0.1442 -0.3851  0.0527
43627W        W74843  24.374  22.814   8.678  0.2720 -0.1279 -0.3600
43628W        W74844   4.826  18.538   3.871 -0.1223  0.0390 -0.2159
43629W        W74845  24.711  15.350  10.108  0.2505  0.1797  0.2427
43630W        W74846  16.173  26.592   9.458 -0.0060  0.3122  0.0736
43631W        W74847  24.044  26.913   9.549 -0.0121  0.1302  0.0140
43632W        W74848  18.482   4.436   0.489  0.0375  0.1383 -0.0228
43633W        W74849   6.319  19.057   9.002  0.4458 -0.4170  0.4162
43634W        W74850  23.939  22.131   8.052  0.2451 -0.4606 -0.1041
43635W        W74851  24.255   8.489   8.554 -0.1240  0.1560 -0.1214
43636W        W74852   4.862   8.845  10.384 -0.1440 -0.0889 -0.4033
43637W        W74853  12.046  15.996   1.438 -0.0553 -0.1056  0.1379
43638W        W74854  13.447  13.252   0.682 -0.0604 -0.1044  0.1630
43639W        W74855   5.082   5.785   7.332 -0.0126  0.0348 -0.0266
43640W        W74856   7.375  14.861   0.682  0.1161 -0.0788  0.1979
43641W        W74857   9.631  18.628   1.621 -0.0192 -0.2623 -0.0943
43642W        W74858  13.730  16.839   8.188 -0.0553  0.0414  0.3040
43643W        W74859   9.329  21.132  10.162  0.3487  0.0320 -0.0613
43644W        W74860  20.030  17.591   9.064  0.2698  0.0245  0.1073
43645W        W74861  18.185  14.046   2.280  0.1494  0.0525  0.1483
43646W        W74862  15.176  21.267   8.983 -0.0277  0.0033 -0.2020
43647W        W74863   9.680   1.095   7.529  0.0600  0.1628  0.2317
43648W        W74864   3.333   0.885   8.523 -0.1883  0.0686 -0.0004
43649W        W74865   8.157  23.388   8.750  0.1198  0.2491 -0.1194
43650W        W74866  23.920   7.228   0.917 -0.2164 -0.0738 -0.0052
43651W        W74867   8.875  12.576  10.310 -0.0093 -0.0612  0.0365
43652W        W74868   0.253  22.460   9.025 -0.0248  0.0930 -0.2610
43653W        W74869  21.749   9.930   9.610 -0.0047 -0.1206  0.0172
43654W        W74870  12.900  27.377   1.116 -0.0430 -0.1150  0.1094
43655W        W74871  20.821   7.225   0.506 -0.2269  0.1357 -0.1446
43656W        W74872  19.811  26.367   2.105  0.1091  0.0056 -0.0249
43657W        W74873   8.076  16.011   2.732  0.1477  0.0817 -0.2159
43658W        W74874  17.615  26.158   9.587  0.1177 -0.0100 -0.3065
43659W        W74875   8.110   6.252   0.998  0.0539 -0.0643  0.0595
43660W        W74876  25.104   9.633   7.955  0.1530 -0.1660  0.1715
43661W        W74877  21.515   0.280   8.118  0.0834 -0.0786 -0.0566
43662W        W74878   3.761   6.674   7.207  0.0955 -0.2536 -0.0845
43663W        W74879  21.319  10.496   2.375 -0.0372  0.1846  0.2174
43664W        W74880  11.853   7.830   2.091 -0.1360 -0.2097 -0.1997
43665W        W74881   4.094  12.221   7.342  0.1384 -0.3218 -0.4678
43666W        W74882   7.762  11.678   9.785 -0.1568  0.2706 -0.4058
43667W        W74883  19.836  15.109   7.719 -0.1588  0.1123 -0.1802
43668W        W74884   9.717  14.816   7.515  0.0819 -0.0655  0.0448
43669W        W74885  25.647   1.292   2.181 -0.0407 -0.0443 -0.1927
43670W        W74886   1.296  17.042   2.642  0.3033 -0.0722 -0.0277
43671W        W74887  25.136   6.659   2.052  0.2532 -0.1927 -0.2830
43672W        W74888  16.038  17.896   0.022 -0.3034 -0.0345 -0.1593
43673W        W74889  20.231   6.886   9.162 -0.2390  0.0789  0.1712
43674W        W74890  27.427  11.109   9.124 -0.1007 -0.3273 -0.0164
43675W        W74891   6.937   8.776   7.638 -0.0104 -0.4061  0.0194
43676W        W74892  11.459  26.684   9.169 -0.2327 -0.0818  0.2421
43677W        W74893  20.719  13.960  10.208 -0.0456 -0.2937 -0.1659
43678W        W74894   0.273  24.468   9.432  0.1395 -0.0065 -0.1255
43679W        W74895  24.674   4.450   1.693  0.1188  0.1869  0.1295
43680W        W74896   4.068  13.874  10.454 -0.1405  0.1219 -0.0578
43681W        W74897  16.316   8.685   1.625 -0.0382  0.2331  0.2132
43682W        W74898  22.554  18.761   8.487 -0.1318 -0.2451 -0.0759
43683W        W74899   3.006  19.536   1.227 -0.3075 -0.0025 -0.1973
43684W        W74900  27.061  12.890   9.724  0.1380  0.2073  0.1949
43685W        W74901  17.063   2.063   0.532  0.0453 -0.0317 -0.2118
43686W        W74902  21.146  15.838  10.170 -0.1074 -0.4409 -0.1108
43687W        W74903  12.215   0.143   1.017  0.0146 -0.0338  0.3592
43688W        W74904  22.762  15.554   0.646  0.2593 -0.1881 -0.0977
43689W        W74905  18.310  20.713   8.480 -0.0153 -0.0762 -0.1639
43690W        W74906   4.103   9.523   2.137 -0.2151 -0.2401 -0.0583
43691W        W74907  18.328  20.392   8.879 -0.4216  0.1028  0.1470
43692W        W74908  20.302   7.552   7.528 -0.0379  0.0879 -0.1238
43693W        W74909  22.311  25.642  10.502  0.2030  0.1580 -0.3180
43694W        W74910  13.500   7.279   1.144  0.0764 -0.0629 -0.1490
43695W        W74911  13.890  24.069   1.884  0.1104 -0.3110 -0.0264
43696W        W74912  13.749   0.964   1.466  0.3102 -0.0618  0.2485
43697W        W74913  16.843  18.334   9.422  0.1472  0.1074 -0.0269
43698W        W74914  21.403  14.733   7.005  0.0801 -0.4754 -0.1800
43699W        W74915  14.999  10.100   1.204 -0.3245 -0.3389 -0.2179
43700W        W74916  18.451  10.497   7.710 -0.3899 -0.0320  0.0069
43701W        W74917  25.715  16.631   0.687  0.1387  0.0250 -0.0138
43702W        W74918   9.833   5.368   0.272 -0.2301 -0.1250 -0.2938
43703W        W74919   8.855   2.721  10.303  0.0963  0.2899 -0.1353
43704W        W74920  27.620  14.356   1.954  0.4747  0.0602  0.2647
43705W        W74921   7.544   9.760   1.932 -0.1094 -0.1458 -0.1606
43706W        W74922  20.837  17.816   0.123  0.1321 -0.3349 -0.3108
43707W        W74923  25.936  21.844  10.237 -0.3229  0.0415  0.1509
43708W        W74924   9.708   3.649  10.368 -0.1036  0.0169  0.1028
43709W        W74925  14.676  14.221   8.194  0.0215  0.0114 -0.0383
43710W        W74926  16.931  19.389   9.167 -0.1102 -0.1096  0.0185
43711W        W74927  23.677  17.778   0.626 -0.2036 -0.1149  0.1128
43712W        W74928  22.653   4.787   2.462  0.2083 -0.0576  0.2161
43713W        W74929  20.329   1.197   3.607  0.0221  0.3188 -0.3012
43714W        W74930   4.162  12.002   0.010 -0.1097  0.1106  0.2248
43715W        W74931   2.989   7.227   0.204 -0.0656  0.1365  0.2997
43716W        W74932  11.968  24.268   9.284  0.1136 -0.0028  0.0024
43717W        W74933   6.699  25.164   8.586 -0.0188  0.0621  0.0037
43718W        W74934  16.260   7.633   7.815  0.3055  0.0844  0.0777
43719W        W74935  20.248  15.826   2.162  0.0629 -0.0415  0.3266
43720W        W74936  23.559   4.298   0.748 -0.0800  0.2868  0.3006
43721W        W74937  12.696  17.826   8.551 -0.3020  0.1124  0.3387
43722W        W74938  21.357  17.718   7.836 -0.2697 -0.0593  0.0512
43723W        W74939  22.794  25.552   8.785 -0.1518  0.1271 -0.1469
43724W        W74940  10.233  27.491  10.305 -0.1484 -0.4177 -0.2499
43725W        W74941  14.089  22.204   7.567  0.0089 -0.0995 -0.0167
43726W        W74942  19.678  17.675   3.171 -0.0344  0.2155  0.1346
43727W        W74943   4.385   7.512   0.896  0.0369  0.0205 -0.0588
43728W        W74944  22.871  12.430   1.007  0.1097 -0.1394  0.3400
43729W        W74945   2.780  23.373   3.333  0.1494 -0.0053 -0.0564
43730W        W74946  17.427  17.744   3.048  0.1220  0.0226 -0.1887
43731W        W74947   4.294   1.986   2.265 -0.1837 -0.1608 -0.0110
43732W        W74948  15.512   1.164   1.635  0.0919 -0.0984  0.2425
43733W        W74949  19.040   1.806   2.527 -0.1911  0.1446 -0.0059
43734W        W74950   0.239  20.354   0.741  0.2018  0.2006 -0.1857
43735W        W74951  22.126  22.601   0.804  0.0733 -0.0517 -0.0573
43736W        W74952  13.608  14.508   1.500  0.3817  0.0863  0.1943
43737W        W74953   4.230  19.018   8.791 -0.1140  0.0097 -0.0499
43738W        W74954  19.669   0.765   8.431  0.0214  0.2987  0.0280
43739W        W74955   2.550  13.585  10.226 -0.0491 -0.0594  0.3215
43740W        W74956   5.796  26.309   1.799  0.0087 -0.1091  0.0921
43741W        W74957  13.557  21.628   3.335  0.0931 -0.0494 -0.3102
43742W        W74958  17.153  12.986   2.128 -0.0307 -0.1324  0.0595
43743W        W74959  19.375  16.253   8.781  0.0103 -0.0980 -0.2407
43744W        W74960  22.194  13.357   8.733 -0.0586  0.0992  0.0312
43745W        W74961  19.539  11.025   1.805  0.2326  0.3312 -0.1119
43746W        W74962  24.681  15.576   0.006 -0.1184  0.1372 -0.1849
43747W        W74963   4.975  22.695   0.746  0.3489  0.2740 -0.1920
43748W        W74964  20.808  23.888  10.281 -0.2230 -0.1927 -0.2130
43749W        W74965   0.554  25.692   0.739  0.3792  0.2742 -0.2575
43750W        W74966   2.897   7.660   0.988  0.1284  0.2954  0.4345
43751W        W74967   0.224   2.565   9.472 -0.0508 -0.2539  0.2794
43752W        W74968  12.521  20.567   9.780 -0.1172 -0.0959 -0.1393
43753W        W74969   1.604  15.560   3.293  0.1222  0.0375 -0.3173
43754W        W74970  11.145  26.149   0.291  0.2121  0.0715  0.1641
43755W        W74971   7.662  27.385   0.950  0.0798  0.1307 -0.0371
43756W        W74972   5.111   9.992   3.270  0.0478 -0.3605 -0.4917
43757W        W74973  20.855  15.740   2.739  0.0590 -0.0135 -0.1124
43758W        W74974  17.506  22.290   2.781  0.1733 -0.0793 -0.3447
43759W        W74975   6.108  20.002  10.212  0.4297 -0.1567  0.0255
43760W        W74976  12.861  19.392   7.961  0.1455 -0.5777  0.3745
43761W        W74977   2.985  10.983   9.132 -0.0878  0.0708  0.2603
43762W        W74978  19.833  25.591   2.353 -0.3767  0.0480  0.0408
43763W        W74979  16.027  13.339   9.932 -0.3229 -0.1365 -0.2069
43764W        W74980  22.799   4.989   0.097  0.1040 -0.2695  0.1034
43765W        W74981   2.105   6.506   2.426 -0.2893 -0.2435 -0.0036
43766W        W74982  22.156   0.190   3.341  0.1881  0.1789  0.0521
43767W        W74983  22.537  16.401   9.859 -0.2868  0.4166 -0.0053
43768W        W74984   4.905   3.725   7.464 -0.3538 -0.1775  0.3100
43769W        W74985  14.894  15.393   0.988  0.0416  0.1831 -0.0125
43770W        W74986   0.925  15.518   2.976  0.4355  0.0975  0.1084
43771W        W74987   2.331   0.900   2.551  0.1196 -0.0682 -0.0261
43772W        W74988  13.065  16.539   9.801 -0.1336 -0.3235 -0.2068
43773W        W74989  11.176   4.270   7.482  0.0461 -0.0115 -0.0028
43774W        W74990  24.881   2.192   8.934  0.0330  0.1330 -0.1822
43775W        W74991  10.385  12.853   0.018 -0.0515 -0.1285  0.1291
43776W        W74992   0.051   4.370   8.849 -0.0242  0.1033 -0.2535
43777W        W74993   5.634   9.713   1.975 -0.4961  0.0007  0.1210
43778W        W74994  22.942  16.354   2.959 -0.2811  0.1936  0.4013
43779W        W74995   9.018  10.214   1.984 -0.1560  0.0692 -0.0172
43780W        W74996  16.150  14.101   1.367  0.1682  0.1096  0.2519
43781W        W74997  21.203  23.586   9.921  0.1127 -0.2352 -0.1710
43782W        W74998  22.458  19.195  10.197 -0.1005 -0.1930 -0.0189
43783W        W74999  15.019  24.327   3.120  0.2475  0.0126  0.2395
43784W        W75000  21.095  22.173   9.739  0.1525  0.0024 -0.0670
43785W        W75001  23.882   3.922   2.758  0.2836 -0.1023 -0.0421
43786W        W75002   7.714  20.254   8.584  0.1282  0.1604 -0.1042
43787W        W75003  27.377  25.554   9.395  0.2956 -0.1508 -0.0540
43788W        W75004   5.768  25.636   3.483  0.4115 -0.1733 -0.0428
43789W        W75005   6.534  22.267   3.627  0.1786  0.0700 -0.0952
43790W        W75006  18.731  24.608   2.120 -0.4127 -0.1594 -0.0032
43791W        W75007  21.937  18.933   0.776 -0.1048 -0.1042 -0.0346
43792W        W75008  12.053   2.975   8.381 -0.3071  0.1162  0.1135
43793W        W75009   6.592  27.112   1.789  0.1912 -0.1463 -0.0983
43794W        W75010   5.450   2.617   7.836 -0.0781  0.0089  0.1643
43795W        W75011  19.166   5.262   0.238 -0.1112  0.1777 -0.2516
43796W        W75012   8.425  13.824   9.129 -0.0581  0.2827  0.1096
43797W        W75013   7.233  17.283   3.706 -0.0515  0.0552 -0.2670
43798W        W75014  26.519  16.405   2.436 -0.6556 -0.2255  0.0701
43799W        W75015  20.694  15.758   1.440  0.0751  0.0393 -0.0651
43800W        W75016  23.582  13.465   9.942 -0.0390 -0.1657 -0.0631
43801W        W75017   3.979   0.211   0.504  0.1682 -0.0083 -0.2144
43802W        W75018  25.041   0.479   0.068  0.1248 -0.0318 -0.0866
43803W        W75019  23.339  13.242   2.585 -0.0253 -0.1318  0.2115
43804W        W75020  23.737  17.299   0.319 -0.0571 -0.0434 -0.1306
43805W        W75021  25.686   7.459   0.943 -0.2635 -0.2673  0.1080
43806W        W75022  17.761   8.900   1.129  0.0858 -0.4411 -0.2948
43807W        W75023  18.953  15.407   0.963 -0.1302 -0.0895 -0.0855
43808W        W75024  19.206  24.149   7.900  0.2287 -0.0643 -0.1980
43809W        W75025  13.959  23.311   3.682  0.0891  0.2710  0.0224
43810W        W75026  14.362   6.169   3.233  0.0969 -0.1333 -0.0283
43811W        W75027   5.464   0.779   3.200  0.2853 -0.2377  0.0424
43812W        W75028   0.752  25.019   2.164 -0.1773 -0.1650  0.1204
43813W        W75029   5.413  26.426   0.884  0.2840 -0.2861  0.1401
43814W        W75030   4.893  24.583   9.988  0.0094 -0.1113  0.1538
43815W        W75031   8.070   6.988   9.757  0.2287 -0.1095  0.0779
43816W        W75032  19.078  26.922   0.517  0.1593 -0.1300  0.2037
43817W        W75033  14.522  10.185   3.226  0.0290 -0.0554  0.1983
43818W        W75034   8.982   4.883   8.226 -0.1741  0.0374  0.1841
43819W        W75035  12.221   7.986   2.389  0.2045 -0.2052  0.0001
43820W        W75036   3.234   8.010   8.784 -0.1150 -0.0686  0.0153
43821W        W75037   2.530  16.328   7.877 -0.0550 -0.1611  0.0090
43822W        W75038   6.206   7.091   2.198  0.0451  0.1292 -0.0290
43823W        W75039  15.932   5.778   9.144  0.4775  0.1991  0.0968
43824W        W75040  13.013  17.143   1.956  0.0558  0.1542 -0.0058
43825W        W75041  15.046  20.714   0.311 -0.0346  0.0300 -0.0788
43826W        W75042  19.249  16.795   2.691 -0.1213 -0.2487 -0.0051
43827W        W75043  12.400   2.200   2.346 -0.0375  0.0053 -0.0718
43828W        W75044  15.623   9.508  10.101  0.1131 -0.1352  0.1035
43829W        W75045  19.545  12.487   0.137  0.3453 -0.2213 -0.0874
43830W        W75046   7.743  22.417   0.597  0.0857  0.0115  0.0915
43831W        W75047  27.423   7.015  10.120  0.2472  0.3293  0.3675
43832W        W75048   2.322  16.111   8.612  0.2989 -0.2538 -0.2823
43833W        W75049  24.737  18.329   8.509 -0.0828  0.0552 -0.3468
43834W        W75050  26.491  15.993   8.839  0.0275  0.0309 -0.1123
43835W        W75051  12.041  23.702   0.797  0.0750 -0.2064  0.3921
43836W        W75052  25.484  11.765   9.455 -0.3739 -0.3269  0.1768
43837W        W75053  24.419  16.097   8.221  0.1086 -0.0341 -0.3089
43838W        W75054   0.140   6.337   3.117  0.1580  0.1138  0.0538
43839W        W75055   8.852   8.025   0.829 -0.0043 -0.1562  0.1137
43840W        W75056  25.457  13.608   9.612 -0.3488  0.2641 -0.1293
43841W        W75057  22.119  22.913   2.027  0.2711  0.2418  0.0777
43842W        W75058  25.695   8.307   8.338  0.1786  0.1624 -0.0850
43843W        W75059  23.112  12.484   0.141  0.0424 -0.4601  0.0569
43844W        W75060  14.435  26.019   3.953  0.1327 -0.0735 -0.1795
43845W        W75061   5.479  23.836   8.677 -0.2584  0.0243 -0.1184
43846W        W75062  14.455  17.004   0.491 -0.0429 -0.1164 -0.0274
43847W        W75063  10.537  11.270  10.063  0.1838  0.0168  0.0335
43848W        W75064  10.104   4.290   7.880  0.0913  0.1306 -0.0934
43849W        W75065  26.980   3.552   9.098  0.1216  0.0985 -0.1817
43850W        W75066  14.306  17.445   8.165  0.2146  0.0854 -0.0785
43851W        W75067   7.652   4.610   0.866 -0.0278 -0.2007 -0.1490
43852W        W75068  10.559  14.150   9.140 -0.1508  0.1090 -0.2497
43853W        W75069   0.182   7.245   9.337 -0.1146 -0.0746 -0.4649
43854W        W75070   0.836   7.988   9.420  0.1804  0.0592  0.0735
43855W        W75071  17.573   2.218   9.323 -0.1925 -0.1046  0.0657
43856W        W75072  24.814  14.491   3.544  0.2315  0.1410 -0.2543
43857W        W75073  13.777   3.745   1.412 -0.0210  0.2921  0.0141
43858W        W75074  12.148  11.398   1.213 -0.0715 -0.0758  0.1592
43859W        W75075   7.629  22.337   0.021  0.1095  0.1472  0.1426
43860W        W75076  17.627   0.468   9.571  0.2518 -0.0639 -0.2423
43861W        W75077  25.501  21.418   9.521 -0.2373  0.0726  0.0109
43862W        W75078   9.756  20.492   9.549 -0.0780  0.0260 -0.1060
43863W        W75079  17.077  10.959   8.375 -0.0975  0.1276  0.0745
43864W        W75080  20.723  24.927   8.300  0.0192  0.0841 -0.2027
43865W        W75081   5.258   3.461   9.708  0.1459 -0.2226  0.1457
43866W        W75082   6.740   3.701  10.114  0.1526 -0.2502 -0.0988
43867W        W75083  14.930  18.889   0.845 -0.1565  0.3297  0.2523
43868W        W75084  24.868   8.643   2.377  0.1941  0.1284  0.1627
43869W        W75085  20.518   2.166   9.605 -0.0467 -0.1633  0.1854
43870W        W75086  25.830  25.892   7.769  0.0689  0.1839  0.2817
43871W        W75087  24.624  24.858   0.504 -0.0436 -0.3645  0.0876
43872W        W75088  17.793  12.321   6.987  0.0517 -0.0583  0.0745
43873W        W75089  18.958   7.788   3.109  0.1135  0.0811  0.2241
43874W        W75090  18.956  18.805  10.352 -0.2611 -0.0076 -0.1481
43875W        W75091  17.256   1.757   3.183 -0.1283  0.0937 -0.0562
43876W        W75092   4.230   9.183   1.772 -0.0292 -0.3168  0.0680
43877W        W75093   4.312  10.481   2.066  0.1677  0.1043 -0.2219
43878W        W75094  22.013  13.673   2.291 -0.1184  0.0662 -0.2298
43879W        W75095  27.288   2.984   8.993 -0.5274 -0.5014 -0.3726
43880W        W75096  24.205   1.269   9.783 -0.1724 -0.1050  0.2605
43881W        W75097  16.058  13.529   0.752  0.4152  0.4573  0.0189
43882W        W75098  18.829  16.010   1.778 -0.1477  0.0394 -0.1689
43883W        W75099  19.852  21.097   4.398 -0.3606  0.0682 -0.1273
43884W        W75100  14.048  24.300   3.320 -0.0610 -0.2168 -0.0227
43885W        W75101   6.351  10.874  10.164  0.0699  0.0324 -0.1463
43886W        W75102  18.872  18.279   9.024 -0.0139 -0.0258 -0.0625
43887W        W75103   9.674  15.401   1.820 -0.0420  0.2381 -0.1607
43888W        W75104  16.442  15.377   2.435  0.2720  0.0037  0.0341
43889W        W75105  23.726  10.487   3.201  0.1343  0.2357 -0.0510
43890W        W75106  24.217   6.540   0.123 -0.1278  0.2059 -0.0435
43891W        W75107  12.872  19.978   9.221  0.1608 -0.3133  0.1308
43892W        W75108  21.226   3.549   1.840 -0.0575  0.3977  0.6047
43893W        W75109   5.730  26.257   9.337  0.0348  0.0977  0.1533
43894W        W75110  15.332  25.131  10.350 -0.0369 -0.0934 -0.2606
43895W        W75111  21.210  15.230   1.451 -0.0787  0.0521  0.1900
43896W        W75112  19.360  22.018   1.268 -0.0750 -0.2005  0.1706
43897W        W75113  24.025   1.521   8.714  0.0727 -0.0954 -0.1744
43898W        W75114  11.389  24.298   0.640 -0.0883 -0.1323 -0.1285
43899W        W75115   1.597   5.231   7.990  0.1343  0.2783  0.1059
43900W        W75116  24.335  16.365   1.989 -0.0582 -0.1281  0.1597
43901W        W75117   6.222   0.270   7.901  0.3569  0.0970  0.1393
43902W        W75118   5.431  22.314   2.148 -0.0978 -0.2482  0.1443
43903W        W75119  23.730  12.695   1.882 -0.0498  0.2035 -0.1264
43904W        W75120  13.453  16.274   0.092 -0.0632  0.2457 -0.2596
43905W        W75121  19.778  20.405   0.789  0.4394 -0.0982 -0.1922
43906W        W75122  22.886   8.542   9.591  0.1613  0.0946 -0.0204
43907W        W75123   9.626   2.217  10.478 -0.0128  0.0913  0.0280
43908W        W75124  13.432   1.168   2.606 -0.1140  0.0026 -0.0546
43909W        W75125  17.915  16.616   8.789  0.0598  0.0492  0.0301
43910W        W75126  12.414  18.048   8.919 -0.0736  0.1144 -0.0660
43911W        W75127   9.072   0.580   1.415  0.2203  0.2219  0.3240
43912W        W75128   5.778   2.866   9.570 -0.3190  0.0762 -0.0062
43913W        W75129   9.809  15.099   9.753  0.0945 -0.0038  0.4016
43914W        W75130  22.990  26.424   0.942  0.0932 -0.0783  0.1350
43915W        W75131  12.537  21.556   9.602  0.4217  0.0618  0.1947
43916ION     NA75132   1.134   8.073   9.746 -0.1702  0.0441 -0.0410
43917ION     NA75133  16.288  10.590   0.704 -0.2668  0.1115  0.3641
43918ION     NA75134   2.960  12.565  10.185  0.2602  0.1979 -0.1427
43919ION     NA75135  24.289   4.382   0.504  0.2427 -0.3056 -0.0148
43920ION     NA75136  27.251   2.486   2.878  0.1724  0.0842  0.1488
43921ION     NA75137  20.195  19.900   8.953 -0.3221  0.0495  0.0247
43922ION     NA75138   6.968  22.109   0.029  0.3828  0.5381 -0.2255
43923ION     NA75139  20.521  17.786   1.767  0.1549 -0.0668 -0.2373
43924ION     NA75140  11.228   8.910   1.556  0.1147 -0.0423 -0.0242
43925ION     NA75141  15.527   3.190   3.531  0.0615  0.5519 -0.0317
43926ION     NA75142  12.007  26.565   3.781 -0.3861  0.0671 -0.0239
43927ION     NA75143  12.072  16.770   2.156  0.2891 -0.2075  0.2530
43928ION     NA75144  10.306  21.298   0.193  0.0934  0.5204  0.3769
43929ION     NA75145   2.179  18.770   2.442 -0.1470  0.3171  0.2516
43930ION     NA75146  11.143  16.340   8.768 -0.4723  0.1457 -0.1492
43931ION     NA75147  24.633  24.060   1.870  0.3223  0.1424 -0.2408
43932ION     NA75148  25.846  12.980   4.028  0.0832  0.3117 -0.1336
43933ION     NA75149  12.523  14.404   9.359  0.4288 -0.0884  0.0265
43934ION     NA75150   0.767   5.137   7.706  0.0835  0.1763  0.2136
43935ION     NA75151   0.086  15.982   9.429 -0.1563  0.3461  0.6995
43936ION     NA75152  26.630  22.397   1.034 -0.0888  0.0336  0.2421
43937ION     NA75153   9.717   4.280   9.957  0.4312  0.5442  0.1370
43938ION     NA75154   7.382  25.089  10.446  0.6445 -0.0184  0.2735
43939ION     NA75155   4.677  16.766  10.217  0.1573  0.3928 -0.3562
43940ION     NA75156  18.086  14.043   0.207  0.5491  0.0393  0.0931
43941ION     NA75157  13.620  15.723   2.686 -0.4507 -0.0861  0.1726
43942ION     NA75158   0.364  16.621   2.186 -0.0931  0.0125 -0.1461
43943ION     NA75159  14.790  18.723   9.706  0.1180 -0.1703 -0.0960
43944ION     NA75160  13.499  13.960   0.766  0.1418  0.0532 -0.0861
43945ION     NA75161  24.534  10.233   9.550  0.2315  0.2372  0.0401
43946ION     NA75162  18.013  19.819   7.620  0.2370  0.4503  0.2160
43947ION     NA75163   1.220  15.801   3.073  0.4392 -0.1502  0.0008
43948ION     NA75164  10.020   8.650   1.282 -0.1647  0.2758  0.1600
43949ION     NA75165  23.558  10.064   8.697 -0.1699  0.3572 -0.2357
43950ION     NA75166  18.326  21.694   1.975  0.4023 -0.1320  0.0507
43951ION     NA75167  15.211  25.899   1.354 -0.0652  0.2832 -0.4430
43952ION     NA75168  24.146   9.483   1.956 -0.5188  0.5595 -0.2657
43953ION     NA75169  19.081  18.435   1.335  0.1616  0.5886  0.2564
43954ION     NA75170  14.984   4.423   1.463 -0.2795  0.7095 -0.0073
43955ION     NA75171  20.315  14.144   2.975  0.4337  0.2339  0.0181
43956ION     NA75172   0.829  26.053   9.499 -0.2431  0.0703  0.4219
43957ION     NA75173  21.941  15.524  10.321  0.4526 -0.3234  0.4367
43958ION     NA75174  13.693  24.302   9.651  0.1175 -0.0604 -0.2282
43959ION     NA75175  16.677  25.965   9.750  0.1162 -0.3769  0.1592
43960ION     NA75176  25.208  13.836   9.377  0.1527  0.0436  0.1694
43961ION     NA75177  15.703  20.000  10.016 -0.0647  0.3369  0.1571
43962ION     NA75178  13.823  10.276   1.254  0.1590 -0.3318  0.1875
43963ION     NA75179  12.866   3.923   2.791 -0.2299  0.1393 -0.2028
43964ION     NA75180  17.760  12.655  10.294  0.1916 -0.2397 -0.0599
43965ION     NA75181  26.825  14.244   0.900 -0.2048 -0.3500 -0.5136
43966ION     NA75182   6.129  16.052   0.267  0.1805 -0.1436  0.4163
43967ION     NA75183  16.150   7.896   8.822  0.0386 -0.0245  0.3065
43968ION     NA75184   4.229  17.686   2.802  0.1771  0.1657  0.0990
43969ION     NA75185  20.949  14.292   2.760 -0.4222  0.1908  0.4709
43970ION     NA75186   8.246   8.263   3.604 -0.0582  0.1172 -0.2260
43971ION     NA75187   8.520   4.944   2.474 -0.3497 -0.1234  0.0369
43972ION     NA75188  22.811  13.154   9.955 -0.1634 -0.6091 -0.3771
43973ION     NA75189  17.065   2.475   0.506  0.1939 -0.0901 -0.0710
43974ION     NA75190  21.161  11.116   9.537 -0.0369  0.3354 -0.1759
43975ION     NA75191   9.431  19.774   2.968 -0.0653  0.7493 -0.1016
43976ION     NA75192   3.740  22.029   7.887 -0.4272 -0.0486  0.0863
43977ION     NA75193  10.610   7.367   0.712  0.0409  0.3695  0.2143
43978ION     NA75194  11.201  10.775   8.616 -0.0158  0.0772  0.4654
43979ION     NA75195   8.304   3.015   2.023  0.0123  0.2699  0.0412
43980ION     NA75196   3.600  17.834  10.222 -0.2105 -0.2154  0.0980
43981ION     NA75197  23.516  18.643   1.462  0.0265  0.4049 -0.2417
43982ION     NA75198  26.885   3.663   2.286  0.2379 -0.0122 -0.0605
43983ION     NA75199  21.154  15.429   2.979 -0.0078 -0.1537  0.1293
43984ION     NA75200   7.155   5.156   8.465 -0.2563  0.0914  0.3524
43985ION     NA75201  22.457   1.656   2.927 -0.4043  0.0230  0.2667
43986ION     NA75202  11.278   1.934   2.452  0.1598 -0.1372 -0.2310
43987ION     NA75203  24.109   4.319   1.918 -0.6142 -0.1653 -0.2247
43988ION     NA75204   2.726  24.125   8.466  0.1129 -0.1042 -0.1108
43989ION     NA75205   2.582  23.483   3.694 -0.3779 -0.2733 -0.2978
43990ION     NA75206  19.014   2.265   0.867 -0.5010 -0.0228  0.5453
43991ION     NA75207   0.304   5.351   2.551  0.0484 -0.1326 -0.1021
43992ION     NA75208  17.400  16.480   2.207 -0.6880  0.1173 -0.0331
43993ION     NA75209  25.155   9.765   9.197 -0.0431 -0.1519  0.0849
43994ION     NA75210   3.235  13.320   0.264  0.0339  0.2250  0.0225
43995ION     NA75211   8.145  12.502   8.717  0.5306  0.0066  0.0672
43996ION     NA75212  24.737   6.531   9.296 -0.1555 -0.6982 -0.2986
43997ION     NA75213  14.375   7.283   9.338 -0.0132 -0.0034 -0.0980
43998ION     NA75214  25.400  15.789   0.487  0.0524 -0.1448 -0.1924
43999ION     NA75215   6.104   1.097   9.924 -0.2563 -0.6186 -0.0515
44000ION     NA75216  17.748  10.723   1.881  0.1263  0.7783  0.2221
44001ION     NA75217  20.860   0.787   8.301 -0.4145  0.4217 -0.1644
44002ION     NA75218   3.539  15.860   2.385 -0.1152  0.1481  0.0295
44003ION     NA75219   2.358   9.992   2.158  0.1190  0.2307 -0.3072
44004ION     NA75220  22.347  15.233   1.889  0.1596 -0.0382  0.1801
44005ION     NA75221  21.269   3.919   3.085 -0.2626 -0.1430  0.4273
44006ION     NA75222  21.146  25.852   9.093  0.2802 -0.4661 -0.4312
44007ION     NA75223   3.818  17.018   2.526  0.0043 -0.0927  0.4164
44008ION     NA75224   6.840  13.069   2.283 -0.1285  0.0940 -0.4659
44009ION     NA75225  14.389  22.729   9.205 -0.2460  0.4096  0.2280
44010ION     NA75226  24.655  20.052   3.268  0.4722  0.1933 -0.5339
44011ION     NA75227   4.648   8.031   9.704 -0.1133 -0.1047 -0.3180
44012ION     NA75228  10.334   6.539   2.875 -0.4058  0.0432 -0.1419
44013ION     NA75229   9.849  15.658   2.110 -0.1870  0.4572  0.2216
44014ION     NA75230  21.304  13.384   8.511  0.2646  0.0571  0.0156
44015ION     NA75231   8.433  27.383   7.870  0.4467  0.1990 -0.2124
44016ION     NA75232  17.211  21.771   0.664  0.1629 -0.0297 -0.0570
44017ION     NA75233   2.948  16.652   1.631  0.2531  0.1295  0.0736
44018ION     NA75234   4.614  23.098   8.739  0.0215 -0.0312 -0.0761
44019ION     NA75235   9.110   9.145   1.951  0.1327  0.2955 -0.0045
44020ION     NA75236   1.945  21.665   0.139  0.1574 -0.3195  0.1739
44021ION     NA75237   1.801  15.440   0.197 -0.2641 -0.2975  0.4486
44022ION     NA75238  11.656  26.362   9.329  0.1155 -0.2425  0.6685
44023ION     NA75239  26.255  22.569   9.472 -0.0268  0.0446 -0.1840
44024ION     NA75240  23.188   7.775   1.405  0.6706 -0.0576  0.0153
44025ION     NA75241  13.480  14.386   9.438  0.1547  0.0598 -0.2663
44026ION     NA75242  23.188  25.429   3.211 -0.3457  0.0611 -0.0689
44027ION     NA75243   1.201   4.619   3.344 -0.5603  0.5542  0.1266
44028ION     NA75244  26.585   1.632   2.314  0.2526 -0.2942  0.6031
44029ION     NA75245   0.636   2.599   8.399  0.2209 -0.0398  0.0207
44030ION     NA75246  10.270  14.782   1.313 -0.4047 -0.1559 -0.1702
44031ION     NA75247  13.179  18.163   1.790  0.1556  0.0776  0.0468
44032ION     NA75248  27.041  25.447  10.074 -0.3624  0.2928  0.1930
44033ION     NA75249  12.050   1.952  10.128 -0.0695 -0.2232 -0.0037
44034ION     NA75250  10.685  16.474   9.812  0.1687 -0.0836  0.1470
44035ION     NA75251  19.634   5.922   0.735  0.0722  0.1499 -0.1700
44036ION     NA75252   9.210  12.624   2.229 -0.2000 -0.3024 -0.1012
44037ION     NA75253   7.463  20.255   2.071  0.1447 -0.3231  0.5346
44038ION     NA75254  13.323  25.704   8.392  0.0919 -0.3227  0.3004
44039ION     NA75255  15.233   5.657   9.185 -0.2485 -0.1864 -0.0780
44040ION     NA75256  24.089   2.407   0.197 -0.0116 -0.1076 -0.0934
44041ION     NA75257  20.283  13.394   1.951 -0.1248 -0.3509  0.0030
44042ION     NA75258  14.830   6.943   2.026 -0.0755 -0.2664 -0.1795
44043ION     NA75259   2.136  15.413   1.138 -0.3600  0.1821  0.4637
44044ION     NA75260  20.879  22.519   9.702 -0.4117 -0.1557 -0.2338
44045ION     NA75261  14.927  26.938   1.985 -0.1684 -0.0517  0.2470
44046ION     NA75262  11.595  14.683   2.246  0.0531 -0.5526 -0.0546
44047ION     NA75263   3.872   6.529   8.120 -0.1903  0.3524  0.2197
44048ION     NA75264  22.383  21.664   3.285  0.1912  0.1019  0.2795
44049ION     NA75265   8.152  14.458   0.728 -0.1183 -0.2520  0.3111
44050ION     NA75266   8.754   8.378   0.641 -0.2123  0.0396  0.0872
44051ION     NA75267   0.406  16.663   0.864  0.0711  0.0982  0.4378
44052ION     NA75268   2.415  16.824   1.968 -0.0090  0.0251  0.0244
44053ION     NA75269  24.118  21.799   1.185  0.3426  0.0169 -0.1297
44054ION     NA75270   4.354   0.022  10.293 -0.3297  0.1962 -0.1150
44055ION     NA75271  14.086   6.728   9.183 -0.1286 -0.2350  0.3886
44056ION     NA75272  14.511   8.029   9.797 -0.0288  0.1119 -0.4781
44057ION     NA75273  17.686  21.293   9.991 -0.3590 -0.1107  0.0116
44058ION     NA75274   0.544   4.080   3.252  0.1496  0.0254  0.0395
44059ION     NA75275  22.783  15.205   1.077  0.1881  0.2369 -0.4673
44060ION     NA75276   0.458  19.238   1.285  0.0353 -0.5197 -0.3166
44061ION     NA75277  26.609   1.381   3.068  0.0688  0.2277 -0.3916
44062ION     NA75278   3.390   5.289   0.584 -0.0513 -0.5434  0.0476
44063ION     NA75279  13.500  12.801   3.163  0.2570  0.0415  0.2814
44064ION     NA75280   0.551   4.611   2.569 -0.3490  0.0784  0.0978
44065ION     NA75281  16.841   7.078   1.516 -0.1027  0.1505  0.0528
44066ION     NA75282  21.610  15.507   2.281  0.1203 -0.3235  0.3426
44067ION     NA75283  20.723  27.277   1.865 -0.2289 -0.0259 -0.0897
44068ION     NA75284  13.221  23.281   2.215 -0.1840 -0.2500 -0.3781
44069ION     NA75285  26.954   4.758   2.770 -0.0567 -0.2502 -0.4243
44070ION     NA75286  26.618  11.931   9.905  0.3539 -0.0635 -0.4412
44071ION     NA75287  24.399   6.356   9.873  0.3659  0.1293 -0.2811
44072ION     NA75288  17.055   5.274   8.260  0.2271 -0.4264 -0.2222
44073ION     NA75289   6.099  26.216   1.326 -0.2569  0.0812  0.0578
44074ION     NA75290   2.459   4.884   3.969  0.0755 -0.0559 -0.2201
44075ION     NA75291   9.326  15.232   9.568 -0.0501 -0.5983 -0.3536
44076ION     NA75292  26.163   5.966   8.489  0.5056 -0.4605  0.0532
44077ION     NA75293   8.875  23.478   0.545 -0.0386  0.1640 -0.5077
44078ION     NA75294  13.968   1.080   0.077  0.0387 -0.3569  0.1285
44079ION     NA75295  26.580   6.656   3.256  0.4611 -0.0414  0.0263
44080ION     NA75296  25.869  21.277   1.063 -0.3710 -0.0543  0.1514
44081ION     NA75297  13.387  25.238   9.752 -0.1515  0.0659 -0.7921
44082ION     NA75298  23.562  20.164   0.678 -0.1124 -0.2220 -0.0452
44083ION     NA75299  16.264  12.960   2.329  0.0024 -0.1064  0.2194
44084ION     NA75300  20.958  11.348   1.285 -0.0425  0.0181 -0.0027
44085ION     NA75301  15.361   4.243   8.309  0.0496 -0.2654 -0.4278
44086ION     NA75302  23.598  10.695   9.171  0.4207 -0.3232  0.4845
44087ION     NA75303   3.863  24.236   2.500 -0.0167 -0.2584 -0.4359
44088ION     NA75304  20.819  24.576   2.065  0.4601  0.0876 -0.0662
44089ION     NA75305  16.307  11.369   1.699 -0.6606 -0.0635 -0.0214
44090ION     NA75306  19.951  13.159   0.915  0.1486  0.0944  0.0351
44091ION     NA75307  20.586   6.592   1.904  0.3383  0.2076 -0.0254
44092ION     NA75308  25.768   7.396   0.031  0.4234 -0.0271  0.1647
44093ION     NA75309  19.771   3.667  10.239  0.3753  0.3067 -0.1272
44094ION     NA75310  24.216  23.968  10.148 -0.0735 -0.2016 -0.0585
44095ION     NA75311  17.182   2.176   3.260 -0.2727 -0.4664  0.1940
44096ION     NA75312  23.200  15.725   1.636 -0.3766 -0.1037 -0.0851
44097ION     NA75313  11.581  14.128   1.470  0.2655  0.2641  0.1529
44098ION     NA75314  14.976  10.704   9.576 -0.2381 -0.2494  0.3356
44099ION     NA75315  15.618  24.645   1.324 -0.2927  0.1072  0.5283
44100ION     NA75316   2.665   4.922   3.320  0.0823  0.2056 -0.1035
44101ION     NA75317   7.166   0.278   2.782  0.0872  0.0708  0.4111
44102ION     NA75318  11.740  26.878   8.763 -0.1999  0.4371 -0.4783
44103ION     NA75319   3.517  24.457   0.779  0.0734 -0.0771  0.4572
44104ION     NA75320   3.063  24.380   2.845 -0.0191 -0.0970 -0.2359
44105ION     NA75321  10.421   4.789   2.937 -0.1756  0.0503 -0.1939
44106ION     NA75322  22.999   9.639   2.274  0.2180  0.5131 -0.2027
44107ION     NA75323  13.864   7.574   2.719 -0.1674  0.0032 -0.6013
44108ION     NA75324   9.677  11.862   3.177  0.2087 -0.1771 -0.0105
44109ION     NA75325  15.201   1.687   8.579 -0.1132 -0.1517  0.0796
44110ION     NA75326   5.437   3.603   8.089 -0.2027  0.1250 -0.1058
44111ION     NA75327  20.848  27.585   3.261 -0.2605  0.1320 -0.0194
44112ION     NA75328  20.282   2.342   2.654  0.0450  0.1668 -0.0610
44113ION     NA75329  26.602  16.484   8.373 -0.0035 -0.2333 -0.0550
44114ION     NA75330  20.048   9.925   0.498 -0.3880 -0.4784  0.0618
44115ION     NA75331   8.790  17.741   9.320  0.0780 -0.1013 -0.1697
44116ION     NA75332  16.360  14.754   7.454  0.2800  0.2721  0.1811
44117ION     NA75333  18.301  24.095   2.476  0.2061 -0.0646 -0.3878
44118ION     NA75334  20.085   6.563   3.191  0.1030 -0.3779 -0.1746
44119ION     NA75335   2.763  25.414   0.608 -0.3124  0.0040  0.2336
44120ION     NA75336  25.776   1.457   2.639 -0.3004  0.2975  0.2703
44121ION     NA75337   9.804  24.586   2.252  0.0913  0.1449  0.0925
44122ION     NA75338  10.084  27.475   7.808  0.0494  0.3611  0.1607
44123ION     NA75339  12.019  22.075   1.372  0.0329 -1.1194 -0.1295
44124ION     NA75340   0.588   5.313   3.410 -0.1117 -0.6553  0.2844
44125ION     NA75341   6.393  18.705   0.132 -0.1776 -0.2618 -0.1487
44126ION     NA75342  26.097   6.539   2.794 -0.3033  0.0888 -0.1387
44127ION     NA75343  13.979  20.458   9.840 -0.2563  0.2460  0.0714
44128ION     NA75344  17.963  27.160   1.299 -0.3172  0.5564  0.0628
44129ION     NA75345  27.094  21.226   2.702 -0.4129 -0.1027  0.3728
44130ION     NA75346   3.922   5.292   1.943  0.3884  0.2917 -0.2471
44131ION     NA75347   0.151  26.206   1.082 -0.2651  0.3822 -0.2370
44132ION     NA75348  25.849  12.068   3.159  0.3037 -0.3378 -0.1388
44133ION     NA75349  16.189   2.384   2.271 -0.3925  0.0683  0.0391
44134ION     NA75350  21.845  26.809   1.432  0.2139  0.1160 -0.1804
44135ION     NA75351  23.422   0.347   3.251  0.5157  0.2583  0.1959
44136ION     NA75352  11.490  23.757  10.115  0.0448 -0.3444  0.2987
44137ION     NA75353   8.844  19.235   0.601  0.3358 -0.4396  0.1642
44138ION     NA75354  19.739  23.209   3.121  0.0981  0.9173  0.0145
44139ION     NA75355  27.341  19.737   8.803 -0.4385  0.0999  0.3449
44140ION     NA75356  12.183   3.781   0.907  0.0918  0.3343  0.0258
44141ION     NA75357  26.463  26.498   1.613  0.0702 -0.0067 -0.3464
44142ION     NA75358   0.174   3.954   1.543 -0.2265 -0.1737  0.2083
44143ION     NA75359  12.531   6.195   1.298 -0.2870 -0.1475 -0.0816
44144ION     NA75360  10.521  24.323   1.511 -0.0676 -0.2922 -0.1494
44145ION     NA75361  21.119  13.416   0.319  0.3628 -0.3818 -0.0697
44146ION     NA75362   8.317  17.410   2.556 -0.1183 -0.2115 -0.1049
44147ION     NA75363  23.632  25.094   2.719  0.3222  0.2639  0.1699
44148ION     NA75364  10.684  23.992   9.257 -0.0772  0.1932  0.3075
44149ION     NA75365  24.570  24.283   9.503  0.3528  0.1011 -0.2430
44150ION     NA75366  13.956   6.075   9.218  0.1930  0.5189  0.1981
44151ION     NA75367  22.762   8.897   8.632 -0.3422 -0.6246  0.0263
44152ION     NA75368  26.541   5.367   3.529  0.0146  0.1677 -0.1127
44153ION     NA75369   2.984  12.761   2.338  0.0789 -0.0320 -0.5073
44154ION     NA75370   6.844  17.313   1.906  0.3789 -0.3986 -0.2218
44155ION     NA75371  22.000   3.450   2.051  0.0453 -0.4468  0.5559
44156ION     NA75372   7.178  11.243  10.154 -0.1545 -0.1593  0.3498
44157ION     NA75373   6.074  24.907   8.272  0.3978 -0.0915  0.1520
44158ION     NA75374  17.009  10.641  10.063 -0.1167 -0.0703 -0.4004
44159ION     NA75375  27.149   8.162   2.832 -0.2747 -0.0013  0.5719
44160ION     NA75376  23.496  26.484   1.524  0.3026  0.2040 -0.1061
44161ION     NA75377  18.705   2.403   2.047  0.4264  0.1294  0.0763
44162ION     NA75378  21.454  17.319   7.161 -0.0687  0.1691 -0.2145
44163ION     NA75379   8.347   6.241   8.870 -0.1295  0.2160 -0.0121
44164ION     NA75380  13.620   4.445   2.972 -0.2001  0.2765  0.0070
44165ION     NA75381  14.859  12.930   3.212 -0.2674 -0.1052 -0.1110
44166ION     NA75382  19.310  10.953   8.149 -0.1751 -0.4800  0.3888
44167ION     NA75383  20.946  10.394   0.263 -0.1879  0.0477 -0.1504
44168ION     NA75384   9.672  22.075   0.728 -0.1215  0.0362 -0.1477
44169ION     NA75385   6.053  13.716   2.487  0.0896  0.0060  0.1436
44170ION     NA75386  18.812  15.344   9.936  0.7057 -0.0272 -0.5602
44171ION     NA75387  15.267  16.027   0.345  0.3113  0.0848 -0.1759
44172ION     NA75388   7.553  15.634   9.312  0.1128 -0.1582 -0.4276
44173ION     NA75389  26.815  18.759   3.471 -0.2774  0.1526 -0.3564
44174ION     NA75390   5.708  12.515   8.239  0.1203  0.0061  0.0558
44175ION     NA75391  12.354  20.053   3.077  0.2915 -0.2563 -0.1058
44176ION     NA75392   9.736  16.093   8.217 -0.3163  0.4635 -0.3795
44177ION     NA75393  15.904  21.486   8.469 -0.2091  0.3901  0.2758
44178ION     NA75394   0.941   6.340   2.270 -0.1454  0.4831  0.0102
44179ION     NA75395  19.345  22.266   0.566 -0.0267 -0.0712  0.3469
44180ION     NA75396  18.849   9.761   7.080 -0.2960  0.2118  0.6503
44181ION     NA75397   5.097  10.764   9.511  0.0228 -0.2442 -0.3954
44182ION     NA75398  25.661   6.370   1.402 -0.1352  0.0444 -0.2814
44183ION     NA75399  27.346  15.268   8.970 -0.1716 -0.0827  0.3376
44184ION     NA75400  21.642  24.935   0.914  0.7051  0.1830 -0.3983
44185ION     NA75401  17.416  24.232   2.727  0.3609 -0.1150 -0.2930
44186ION     NA75402  20.700  10.410  10.196  0.1813  0.4962 -0.2035
44187ION     NA75403   2.597  15.000   2.909  0.1235 -0.4138  0.3060
44188ION     NA75404  22.862   9.892   9.595 -0.0794  0.2265 -0.3098
44189ION     NA75405   5.450  15.048   0.292  0.0963  0.1009 -0.2456
44190ION     NA75406  21.286  14.573   0.817  0.0614  0.0715  0.1648
44191ION     NA75407   0.549  21.385   3.024 -0.3427 -0.3730 -0.4231
44192ION     NA75408  18.108   1.348   9.688 -0.2299  0.4556  0.3799
44193ION     NA75409  17.607   0.840  10.223  0.2604  0.2831  0.3656
44194ION     NA75410   8.168   5.812   0.925 -0.3479  0.0312  0.0867
44195ION     NA75411   8.457  24.569   0.818  0.1032 -0.3690 -0.1869
44196ION     NA75412  11.046   5.191   1.175 -0.1974 -0.0316  0.3920
44197ION     NA75413  25.260  11.014   0.701 -0.2323  0.1340  0.4354
44198ION     NA75414  20.099   7.334   9.845 -0.3472  0.2406 -0.1344
44199ION     NA75415  18.966   7.582   2.188  0.4049  0.2022  0.3323
44200ION     NA75416  19.434   1.877   2.315 -0.0960 -0.0244 -0.2019
44201ION     NA75417   2.710  10.448   0.022 -0.0952  0.1537 -0.4184
44202ION     NA75418  19.883  25.809   0.241  0.1621 -0.3087  0.1496
44203ION     NA75419   3.184  21.413   9.244 -0.2120 -0.0472 -0.1726
44204ION     NA75420  23.804  26.732   7.222 -0.0863 -0.1322  0.0265
44205ION     NA75421   3.548   3.490   1.974  0.2761 -0.1506 -0.3891
44206ION     NA75422  26.282  10.631   3.275 -0.4623 -0.4472 -0.3884
44207ION     NA75423  12.723   1.250   3.279 -0.1229 -0.3355 -0.1820
44208ION     NA75424  20.039  12.096   1.947  0.2699 -0.2913 -0.0812
44209ION     NA75425   3.238  27.302   0.192 -0.0962 -0.3742 -0.0701
44210ION     NA75426  15.201   1.548   3.655 -0.3542  0.2892 -0.1530
44211ION     NA75427  25.765   3.000   9.198 -0.0323  0.4711 -0.1086
44212ION     NA75428  26.534  24.277   1.359 -0.2856 -0.3858  0.1798
44213ION     NA75429   1.228   5.169   2.861  0.1891 -0.2814 -0.1832
44214ION     NA75430  23.724   1.269   9.934 -0.5558  0.0815 -0.0375
44215ION     NA75431   5.005  15.347   9.586  0.1854  0.0982  0.1537
44216ION     NA75432   1.517   0.691   1.112 -0.1730  0.4143 -0.2680
44217ION     NA75433  11.733   1.310   2.682 -0.0893  0.0737 -0.3677
44218ION     NA75434   0.340  18.254   0.092 -0.5971 -0.0987 -0.3208
44219ION     NA75435  24.099  23.151   8.567 -0.0961 -0.1601 -0.1124
44220ION     NA75436  19.798  26.871   0.965  0.4696  0.6610 -0.3422
44221ION     NA75437  10.952  12.529   2.547  0.2640  0.2179  0.0450
44222ION     NA75438   0.493  24.651   1.366 -0.1725  0.5055 -0.2795
44223ION     NA75439  18.303  10.953   9.022  0.1516 -0.0583  0.1073
44224ION     NA75440  21.124   5.754   2.542  0.1560 -0.1001 -0.2561
44225ION     NA75441  16.434   4.400   2.412 -0.4180  0.0578 -0.1053
44226ION     NA75442  16.881  13.680   2.947 -0.3475 -0.3427  0.0569
44227ION     NA75443  23.604   9.185   2.549 -0.1206 -0.0970  0.1022
44228ION     NA75444   4.426   3.439   1.761 -0.4736 -0.2099  0.1324
44229ION     NA75445   5.883  14.645  10.528  0.5484  0.2835 -0.1386
44230ION     NA75446   0.414  21.958   0.238 -0.0390  0.0700 -0.0849
44231ION     NA75447  12.935   7.645   0.657 -0.3137 -0.0150 -0.0032
44232ION     NA75448  13.375   8.154   1.892 -0.1190 -0.2144  0.4629
44233ION     NA75449   6.926  16.382   9.645 -0.1408  0.2786  0.3687
44234ION     NA75450  18.178  11.236   1.747 -0.1423  0.3081 -0.2303
44235ION     NA75451   8.358   2.960   3.315 -0.3897 -0.1631  0.2849
44236ION     NA75452  23.150   1.067   1.945  0.0930  0.5131 -0.3419
44237ION     NA75453  13.654   7.310   8.239 -0.0341 -0.1388 -0.4157
44238ION     NA75454  23.626   5.630   0.259  0.4654  0.2954  0.3578
44239ION     NA75455  19.105   6.536   0.537  0.0653 -0.1578 -0.1542
44240ION     NA75456  27.274  21.457   3.309 -0.3910 -0.0505  0.0408
44241ION     NA75457  16.744  19.591   1.254  0.3423  0.1380 -0.1959
44242ION     NA75458  12.733  22.941   2.670  0.5242  0.4401 -0.2146
44243ION     NA75459   5.476   4.697   8.549  0.2134  0.2138 -0.1105
44244ION     NA75460   7.238   9.612   3.448  0.1938 -0.0581 -0.4944
44245ION     NA75461  12.940   2.240   3.479  0.2821  0.1846 -0.0613
44246ION     NA75462  20.068  13.418   2.656 -0.0918 -0.3955 -0.0988
44247ION     NA75463   8.481   7.702   0.201  0.1784 -0.1921 -0.1030
44248ION     NA75464   0.476   2.748   0.623  0.5926  0.1379  0.4858
44249ION     NA75465  20.009   1.062   2.881  0.1072 -0.0907 -0.3394
44250ION     NA75466   2.549  16.505   3.453 -0.1259 -0.2585  0.0849
44251ION     NA75467   9.325  11.445   0.909 -0.3552 -0.1013  0.1765
44252ION     NA75468   2.874  18.350   8.569 -0.1062 -0.3579 -0.2195
44253ION     NA75469  25.272   6.821   0.843  0.4083 -0.0173 -0.3768
44254ION     NA75470  14.233   1.369   3.159 -0.1943 -0.1792  0.2082
44255ION     NA75471   0.654  26.696   2.112 -0.2129 -0.3071 -0.1097
44256ION     NA75472  18.302   0.633   9.478  0.2686  0.1851 -0.0495
44257ION     NA75473   3.610  23.092   3.434 -0.1183 -0.1313 -0.0181
44258ION     NA75474   1.191   5.824   3.538 -0.1924  0.0055 -0.5054
44259ION     NA75475  23.935   0.032   1.317 -0.2496  0.0092 -0.0041
44260ION     NA75476  16.913  12.950   1.739  0.2560 -0.2654  0.0886
44261ION     NA75477   5.040   4.282   0.056 -0.1270 -0.1631  0.1801
44262ION     NA75478  20.624  27.053   1.233  0.5403 -0.9333 -0.0713
44263ION     NA75479  17.931  18.617   3.847 -0.2466 -0.3613 -0.3140
44264ION     NA75480  16.624  20.219   9.125 -0.0827 -0.0936  0.1594
44265ION     NA75481   1.407   7.394   9.188 -0.3253 -0.0651 -0.2733
44266ION     NA75482  24.426  19.156   0.839 -0.3269  0.4922  0.2455
44267ION     NA75483  17.513  25.577   2.930 -0.1653  0.0518 -0.3238
44268ION     NA75484   0.116   4.822   3.030  0.0967 -0.4267  0.2887
44269ION     NA75485   7.970  15.833  10.355 -0.1848 -0.0553  0.4541
44270ION     NA75486   4.090   8.239   1.220 -0.2610  0.2120 -0.0088
44271ION     NA75487  19.004  16.320   8.982 -0.6567  0.3435 -0.0141
44272ION     NA75488  27.074   5.452   2.705 -0.1684  0.1212 -0.0357
44273ION     NA75489  12.732  15.149   1.225  0.1601 -0.3121  0.1121
44274ION     NA75490  11.840  24.582   2.174 -0.4145  0.2073 -0.0873
44275ION     NA75491  25.555  25.017  10.124  0.1249  0.0496 -0.2957
44276ION     NA75492  22.799  22.143   2.802 -0.1835 -0.1693  0.0717
44277ION     NA75493  24.345  26.855   2.324  0.0683  0.0354 -0.1226
44278ION     NA75494   6.051  21.067   1.789 -0.3280  0.2570  0.2096
44279ION     NA75495  15.866  11.824   2.613 -0.0813  0.2200  0.2102
44280ION     NA75496  11.901  13.714   8.777  0.4011 -0.0773 -0.0152
44281ION     NA75497  24.410   0.231   1.646  0.0363  0.1848  0.0476
44282ION     NA75498  19.053  27.306   9.933  0.1502 -0.0752  0.2905
44283ION     NA75499  10.926  20.516   3.012 -0.5688  0.0460  0.0314
44284ION     NA75500  16.917  14.339   1.343 -0.0699  0.2117 -0.1958
44285ION     NA75501  16.311   5.437   9.734  0.1780  0.0608  0.2051
44286ION     NA75502   0.360   5.949   3.195  0.1466 -0.2320  0.0304
44287ION     NA75503   6.925   7.233   1.126  0.3305  0.2423 -0.0331
44288ION     NA75504   4.632  18.932   8.519  0.1849  0.0070  0.1723
44289ION     NA75505  20.109   1.103  10.395 -0.2300 -0.1907  0.1218
44290ION     NA75506  24.851  21.027   2.994 -0.1369  0.4592 -0.1815
44291ION     NA75507  10.501  25.381   8.043  0.1776  0.3084 -0.0127
44292ION     NA75508  19.046   5.766   2.516 -0.0513  0.0949 -0.0192
44293ION     NA75509  10.091  25.018   9.527 -0.4157 -0.1686  0.1217
44294ION     NA75510  18.967   4.612   9.414  0.5937 -0.2186 -0.2575
44295ION     NA75511  27.342   8.260   1.042  0.2630 -0.1880  0.3058
44296ION     NA75512  15.108   8.120   3.456  0.2440  0.0752 -0.4905
44297ION     NA75513   1.836  13.476   3.260 -0.1537  0.2214  0.1502
44298ION     NA75514  13.219  22.434   2.672  0.1349 -0.0788  0.0342
44299ION     NA75515  13.884  27.191  10.227 -0.3005 -0.2605  0.4447
44300ION     NA75516   0.775  11.704  10.000 -0.2841 -0.1554 -0.4060
44301ION     NA75517  18.503  23.770   3.286 -0.0386 -0.3260 -0.0630
44302ION     NA75518  13.617   2.591   8.950  0.0516 -0.1702  0.1482
44303ION     NA75519   3.371  26.696   8.451 -0.4133 -0.0574  0.2963
44304ION     NA75520   9.818  22.801   1.102  0.3707 -0.0681 -0.0972
44305ION     NA75521  19.272  13.790   8.570 -0.5114  0.1951  0.2071
44306ION     NA75522  26.366  25.966   0.288  0.3825  0.1535  0.0052
44307ION     NA75523  25.473   9.615   3.726 -0.1108  0.0158 -0.1775
44308ION     NA75524  19.001  23.493   2.923 -0.3223  0.1659  0.3056
44309ION     NA75525  25.571  23.512   0.504 -0.0271 -0.2281 -0.3406
44310ION     NA75526  22.576  19.468   0.917  0.4777  0.0942 -0.6778
44311ION     NA75527  23.633  13.615   3.442 -0.2949 -0.2330  0.1236
44312ION     NA75528  18.823   9.362   8.791 -0.2535 -0.0518 -0.0985
44313ION     NA75529  15.011  17.485   9.709  0.2296 -0.0565 -0.0955
44314ION     NA75530   1.612   3.940   3.036  0.6360  0.1345  0.2753
44315ION     NA75531  21.259  20.206   3.089 -0.0535  0.1492  0.4062
44316ION     NA75532  17.599  22.328   8.970 -0.0648  0.0048  0.0355
44317ION     NA75533   3.956  19.994   9.954 -0.2013 -0.0429  0.1521
44318ION     NA75534   0.260  12.757   3.521 -0.4063  0.1879 -0.0095
44319ION     NA75535   4.263  23.357   9.524  0.2055 -0.0917 -0.2294
44320ION     NA75536  23.653  25.695   2.626 -0.1722 -0.3297  0.3371
44321ION     NA75537   6.772  21.714   9.771 -0.2372 -0.0606  0.0942
44322ION     NA75538  10.318  27.018   0.977  0.3777 -0.0696 -0.2887
44323ION     NA75539  12.618   1.462   2.228  0.0091  0.6242 -0.2524
44324ION     NA75540   7.057   8.504   2.407  0.1335 -0.0361 -0.1685
44325ION     NA75541  19.190  17.281   2.798  0.2140 -0.2421  0.4081
44326ION     NA75542   2.403  16.622   1.023  0.1023 -0.6745  0.3150
44327ION     NA75543  16.327  23.581   3.174  0.2091 -0.1806 -0.1559
44328ION     NA75544  27.332  19.510   3.480 -0.0281 -0.4891 -0.0841
44329ION     NA75545  14.088   4.428   0.065 -0.4291 -0.2331 -0.0849
44330ION     NA75546  19.420  24.234   3.215  0.1445  0.1202 -0.1588
44331ION     NA75547  10.147  15.471   9.178 -0.4630  0.5022  0.6781
44332ION     NA75548  16.417  12.103   1.776 -0.1729  0.0974  0.0350
44333ION     NA75549  19.299  12.014   9.686 -0.1386 -0.2997  0.1581
44334ION     NA75550  24.508  14.955   3.480  0.2627  0.0965  0.3331
44335ION     NA75551  13.935  24.386   1.637 -0.2079 -0.8031 -0.2601
44336ION     NA75552   7.975   7.857   0.834  0.0078 -0.0150 -0.2575
44337ION     NA75553   2.017   4.478   3.499 -0.1538 -0.2486 -0.3739
44338ION     NA75554  24.094   7.291   8.017 -0.1803  0.2295 -0.0820
44339ION     NA75555  26.577   9.904   0.173  0.1944  0.2646  0.2572
44340ION     NA75556  26.572  20.156   1.664  0.2554  0.1133  0.4173
44341ION     NA75557  22.628  11.049   9.636 -0.1476  0.0247  0.2607
44342ION     NA75558  15.664  21.866   7.905 -0.0383 -0.2384  0.1188
44343ION     NA75559  18.282  23.125   1.899 -0.1887  0.0248 -0.0925
44344ION     NA75560  17.645   4.986   1.574  0.0653 -0.4991  0.4043
44345ION     NA75561  15.534  19.854   3.388  0.1102  0.3725  0.0856
44346ION     NA75562  22.816  25.650   1.598 -0.4125 -0.0970 -0.1343
44347ION     NA75563   1.794  22.263   3.007 -0.1824  0.0845  0.0531
44348ION     NA75564   1.180   0.947   9.299  0.2795  0.1292  0.0161
44349ION     NA75565  12.354  15.671   9.573  0.1568 -0.3222 -0.1566
44350ION     NA75566   2.627   6.667   1.014  0.1736  0.2901  0.0114
44351ION     NA75567  20.288  13.115   7.991 -0.4808  0.2582 -0.0074
44352ION     NA75568  20.930  12.453   8.540 -0.1891  0.0751  0.4285
44353ION     NA75569  24.373   8.855   1.112  0.1924  0.1265  0.1617
44354ION     NA75570  18.481   0.615   2.597  0.1779 -0.5287  0.0441
44355ION     NA75571   2.469  13.967   9.874  0.0008 -0.2149 -0.1601
44356ION     NA75572  23.466  17.119   2.614 -0.3181 -0.1996  0.0972
44357ION     NA75573  20.446  21.735  10.102  0.0925 -0.1632  0.2320
44358ION     NA75574  26.840   2.718   0.088 -0.1080 -0.0695 -0.2816
44359ION     NA75575   5.840  11.490   3.166  0.0457  0.1080  0.1387
44360ION     NA75576  21.305  25.894  10.166  0.2027  0.1332 -0.1977
44361ION     NA75577  15.254  25.022   3.700  0.3347  0.1245 -0.3336
44362ION     NA75578   5.523   3.012  10.314  0.0515  0.2488 -0.0311
44363ION     NA75579  12.337  16.899   9.913  0.3965 -0.4800 -0.1754
44364ION     NA75580  14.483   7.841   1.595 -0.0224 -0.1770  0.2205
44365ION     NA75581  14.594  23.836   8.897  0.0952  0.2567  0.2055
44366ION     NA75582  15.257  21.430   9.894  0.1757  0.2240  0.2257
44367ION     NA75583   1.681  25.510   8.064 -0.0769 -0.0385  0.1322
44368ION     NA75584  22.587   4.141   1.675  0.1555 -0.1016 -0.0463
44369ION     NA75585   6.404   7.863   7.964 -0.0407 -0.5297  0.0759
44370ION     NA75586   5.490  13.955   0.730 -0.1737  0.0734  0.3183
44371ION     NA75587   2.578  19.148   9.336  0.3399 -0.1626  0.4320
44372ION     NA75588   3.545  16.069   0.048 -0.0476 -0.0694  0.1088
44373ION     NA75589  19.309   8.386   2.604  0.0434 -0.2053  0.2165
44374ION     NA75590  25.294  12.528   3.934 -0.2157  0.4412 -0.0439
44375ION     NA75591   0.264  13.099   9.144  0.2786 -0.1258 -0.4663
44376ION     NA75592  23.585   2.786   2.131 -0.0305  0.1231  0.7711
44377ION     NA75593   3.613  22.041   3.935  0.0228  0.1817 -0.1344
44378ION     NA75594  23.402   5.139   9.327 -0.0985  0.0490  0.3156
44379ION     NA75595   0.958  25.226  10.475  0.3512  0.2718 -0.1632
44380ION     NA75596  15.223  22.741   2.241  0.1624  0.2627  0.7117
44381ION     NA75597   6.270  27.269   0.723  0.4186  0.2784 -0.3051
44382ION     NA75598   9.664   5.003   2.776 -0.0538 -0.0793  0.4206
44383ION     NA75599  24.187  19.426   9.318  0.2160  0.2017  0.1554
44384ION     NA75600  16.372   1.990   9.233 -0.0929  0.0457  0.1313
44385ION     NA75601   7.719  16.402   7.994  0.3223 -0.0465  0.1879
44386ION     NA75602  14.457  24.446   1.150  0.3565 -0.0522 -0.2097
44387ION     NA75603   8.508  22.268   1.955  0.5714  0.0391  0.3148
44388ION     NA75604   5.481   3.786   0.063  0.0944 -0.2766 -0.4239
44389ION     NA75605  10.134  21.453   2.898  0.3523  0.2968  0.1759
44390ION     NA75606  27.409  21.721   2.517  0.0965 -0.2162  0.0262
44391ION     NA75607  16.551  19.100   8.525 -0.3186 -0.4141  0.3083
44392ION     NA75608  21.678   7.018   2.043  0.0867  0.0009  0.1630
44393ION     NA75609  11.760  21.987   7.692 -0.6701 -0.3858  0.0626
44394ION     NA75610  25.022  11.710   1.019  0.0248  0.1559 -0.3175
44395ION     NA75611  17.006   0.829   3.426 -0.0541  0.1903  0.2881
44396ION     NA75612   1.981   5.616   3.675  0.0153  0.0369 -0.1965
44397ION     NA75613  22.267   3.601   0.145  0.0348  0.4577  0.4535
44398ION     NA75614  25.437  25.948   2.991  0.1444  0.6829 -0.0093
44399ION     NA75615  17.564  26.774   8.582  0.0389  0.1880 -0.1993
44400ION     NA75616  17.465   3.060   9.062 -0.1275  0.4756  0.1682
44401ION     NA75617  20.816   7.997   8.994  0.3703 -0.1026  0.6419
44402ION     NA75618   4.387   5.167   3.050  0.5668  0.2541  0.0387
44403ION     NA75619  10.934  24.940   1.538  0.1605  0.0473  0.1084
44404ION     NA75620   0.457   2.393   3.159 -0.3785  0.0585  0.1422
44405ION     NA75621  13.701  24.639   2.577  0.0142 -0.0571 -0.1234
44406ION     NA75622  20.326  13.310   9.732  0.0481  0.3168  0.1795
44407ION     NA75623  10.002  14.124   1.075 -0.1267 -0.5695 -0.5131
44408ION     NA75624  26.827  14.370   2.265 -0.0951  0.4024  0.4188
44409ION     NA75625  20.579  12.932   2.445 -0.3142 -0.2575 -0.1748
44410ION     NA75626  22.833   9.319   2.957 -0.1373  0.1554 -0.0290
44411ION     NA75627  26.652  24.692   2.572 -0.6375 -0.4924 -0.6596
44412ION     NA75628  25.234  27.620   8.384  0.1897  0.3552 -0.0135
44413ION     NA75629  11.366  14.883   9.709 -0.2712  0.0992 -0.4290
44414ION     NA75630  16.965  27.540   8.745 -0.1513  0.1476 -0.0529
44415ION     NA75631  24.448  13.137   9.312  0.0957  0.2146 -0.0001
44416ION     NA75632   1.421  27.614   2.502 -0.4168  0.1065 -0.0180
44417ION     NA75633  22.444   1.255   1.030  0.0818  0.0223 -0.1199
44418ION     NA75634  17.801   2.240   3.559  0.0909 -0.1911 -0.1933
44419ION     NA75635   1.300   9.821   9.839 -0.1521 -0.1540 -0.2235
44420ION     NA75636  15.080   1.330   0.250  0.2819 -0.5851 -0.2306
44421ION     NA75637   1.116   2.343   1.725 -0.2233  0.1491 -0.0404
44422ION     NA75638   0.573  25.283   9.338 -0.2593 -0.0118  0.2816
44423ION     NA75639  22.781  15.516   2.458  0.1408  0.1192 -0.0046
44424ION     NA75640  10.693   2.770   2.000  0.1220 -0.0288  0.1242
44425ION     NA75641  21.632  17.383  10.481 -0.0035 -0.3810 -0.0402
44426ION     NA75642  19.265  24.693   1.379 -0.0497 -0.0857 -0.1044
44427ION     NA75643  10.034   1.081   2.136 -0.0002 -0.2892 -0.0774
44428ION     NA75644  17.567  24.353  10.262 -0.2801  0.0728  0.0427
44429ION     NA75645  16.297  24.332   3.618  0.1813  0.0763 -0.0467
44430ION     NA75646  21.031  16.681   2.854 -0.0831  0.2558 -0.0485
44431ION     NA75647   4.326  11.679   2.265 -0.1524 -0.2719 -0.2376
44432ION     NA75648  20.093   8.399   8.894  0.1327  0.0327 -0.0588
44433ION     NA75649   2.566  10.519   2.613  0.2603  0.0968 -0.6810
44434ION     NA75650   6.584   0.905   3.222 -0.3526  0.1137 -0.4035
44435ION     NA75651  27.502  20.492   7.830 -0.0048 -0.2132 -0.3428
44436ION     NA75652  12.026  10.546  10.484 -0.1671  0.3570  0.5018
44437ION     NA75653  24.139  13.452   8.059  0.1859 -0.1961  0.1913
44438ION     NA75654  12.298   3.280   9.136 -0.1710  0.0015 -0.1241
44439ION     NA75655  25.170  19.564   0.292  0.0477 -0.1215 -0.4927
44440ION     NA75656  25.228  23.935   9.571 -0.4518  0.1288  0.2220
44441ION     NA75657   9.832  15.844   3.133  0.1422 -0.2346 -0.0529
44442ION     NA75658  20.527  15.201   2.170  0.0668 -0.4093 -0.0030
44443ION     NA75659  25.009  13.116   9.739 -0.3051  0.1076  0.4598
44444ION     NA75660  22.778   4.153   0.612 -0.1452  0.0646  0.4027
44445ION     NA75661   6.339   0.334   2.983  0.1783 -0.0082  0.3994
44446ION     NA75662   8.468   6.938   1.463  0.2322 -0.0937 -0.0283
44447ION     NA75663   1.870   2.685   8.552  0.1175  0.1119  0.0078
44448ION     NA75664  18.191  12.702   3.204  0.1235 -0.1336  0.0922
44449ION     NA75665  19.000  19.560   0.763  0.4007  0.0980  0.1998
44450ION     NA75666  22.663   5.137   2.686  0.2851  0.3068 -0.0602
44451ION     NA75667  25.672   0.635   2.883 -0.0965  0.0306  0.1463
44452ION     NA75668   7.307   3.354   9.571  0.2715 -0.1467 -0.4804
44453ION     NA75669   0.040  13.862  10.165 -0.3376 -0.1285 -0.0926
44454ION     NA75670  23.414  23.215   9.726  0.1850 -0.0836 -0.0679
44455ION     NA75671   2.356   6.703   9.143 -0.2554 -0.2310 -0.1811
44456ION     NA75672  14.776  25.305   3.102  0.1090 -0.0991  0.3831
44457ION     NA75673   2.453  17.280   1.211 -0.3168 -0.0150  0.1131
44458ION     NA75674  15.094  24.303   0.774 -0.0712  0.2684 -0.2062
44459ION     NA75675  20.024  17.989   8.354 -0.3948  0.2020  0.8208
44460ION     NA75676  24.750  10.784  10.137  0.2470 -0.2157  0.1369
44461ION     NA75677  17.017   5.251   2.122  0.4946  0.3969 -0.4824
44462ION     NA75678   9.477   7.997   2.068 -0.1981  0.0097 -0.1247
44463ION     NA75679   5.281   8.882   9.784  0.0448  0.1989 -0.1136
44464ION     NA75680  13.537  11.501   8.532 -0.4768  0.0903  0.0595
44465ION     NA75681  13.946  13.942   2.495 -0.0304 -0.3602 -0.1472
44466ION     NA75682  12.276  19.959   1.418 -0.2859  0.0811  0.0828
44467ION     NA75683  11.373  18.799   2.445  0.3499  0.6130  0.1489
44468ION     NA75684   9.464  12.425   2.852  0.2060  0.3373  0.0629
44469ION     NA75685  21.933  16.902   2.434  0.2375  0.2649 -0.2767
44470ION     NA75686  17.311  10.260   0.286  0.5449  0.3060 -0.2438
44471ION     NA75687   3.094  14.530   9.737 -0.0588 -0.5155 -0.2048
44472ION     NA75688  27.347   4.206   2.497  0.2263  0.3034  0.3434
44473ION     NA75689  12.418  20.843   9.513 -0.3456 -0.0894 -0.0744
44474ION     NA75690  26.746   2.478   9.567  0.2310  0.1325  0.2449
44475ION     NA75691  23.520  17.045   1.719 -0.0487  0.1273 -0.2325
44476ION     NA75692  21.433  11.364   1.996  0.4022  0.0096  0.1159
44477ION     NA75693  10.919  22.766   2.682  0.0948  0.0925 -0.1514
44478ION     NA75694  22.867  17.099   0.250 -0.0993 -0.1164  0.0169
44479ION     NA75695  15.291  24.362   2.628  0.2049 -0.0309  0.0980
44480ION     NA75696  13.140  20.964   9.109 -0.1139 -0.2555  0.0489
44481ION     NA75697  25.918  17.817   2.377  0.1822  0.3218 -0.0736
44482ION     NA75698  16.445   6.459   0.829  0.0009 -0.2290  0.3861
44483ION     NA75699  21.974  25.841   9.447  0.0215  0.0023  0.1734
44484ION     NA75700  19.821   0.346   2.534  0.0459  0.3041 -0.1456
44485ION     NA75701  21.760  17.408   1.505 -0.1330 -0.7990  0.5146
44486ION     NA75702  24.732  13.583  10.407  0.3086  0.4210 -0.2641
44487ION     NA75703   0.110  17.115   1.525  0.0729  0.0092 -0.4360
44488ION     NA75704   1.523  26.948   8.805 -0.2173  0.6622 -0.1963
44489ION     NA75705  12.256  23.109   2.063 -0.4086  0.1203  0.3034
44490ION     NA75706   5.242   8.469   1.604 -0.3638  0.5809 -0.2435
44491ION     NA75707  25.359   6.993   2.118  0.2136 -0.5065 -0.5999
44492ION     NA75708  26.204  13.019   2.962 -0.1771  0.0320  0.3441
44493ION     NA75709   8.600  25.686  10.467  0.1507 -0.1074  0.2172
44494ION     NA75710   4.588  22.854   2.801 -0.0421  0.3284 -0.2164
44495ION     NA75711  16.690  17.384   8.759  0.4830 -0.2672  0.0329
44496ION     NA75712  16.583  17.359   3.328  0.4551 -0.1849 -0.1182
44497ION     NA75713  12.014   3.781   8.571  0.1721  0.0077 -0.0653
44498ION     NA75714   8.215  23.485   3.387  0.1287  0.0284 -0.2122
44499ION     NA75715  26.407  21.295   2.995  0.2885 -0.1158  0.1719
44500ION     NA75716  10.448  20.434   2.439 -0.1840  0.1311 -0.3547
44501ION     NA75717  12.810  25.138   0.259 -0.1236  0.0680  0.1771
44502ION     NA75718  13.596   0.149   9.478  0.2855 -0.1082 -0.1735
44503ION     NA75719  10.915  12.472   9.588 -0.2004  0.2562 -0.1018
44504ION     NA75720  14.504  24.755   9.133  0.1832 -0.3609 -0.2771
44505ION     NA75721   7.752   8.587   9.999  0.1799  0.0918 -0.6024
44506ION     NA75722  20.855  11.143   3.001 -0.0104 -0.2598 -0.0558
44507ION     NA75723   5.232  25.632   2.177  0.2454 -0.0739  0.0565
44508ION     NA75724  15.456   0.998   0.960 -0.4473  0.0957  0.3353
44509ION     NA75725   0.556  15.888   0.395 -0.2137  0.0749  0.2773
44510ION     NA75726  27.343  12.868   3.179  0.3759 -0.0669 -0.0591
44511ION     NA75727   9.112  21.868   9.719 -0.2063  0.0843  0.1157
44512ION     NA75728  16.227  23.542   2.457  0.5525 -0.0355 -0.0076
44513ION     NA75729  25.528  26.968   9.577 -0.2666  0.3199  0.4448
44514ION     NA75730   8.943  25.154   2.595 -0.1508  0.2468  0.2626
44515ION     NA75731   0.890  22.218   2.764  0.0647  0.0700  0.0202
44516ION     NA75732  19.236  20.847   3.386  0.4374 -0.2163  0.1727
44517ION     NA75733   1.522  15.849   0.779  0.0987  0.4211  0.2189
44518ION     NA75734  13.407  21.918   1.121 -0.4716 -0.4148 -0.2575
44519ION     NA75735   5.091  13.715   1.991  0.0376 -0.1164 -0.2687
44520ION     NA75736  25.680  13.660   2.083 -0.1374  0.0353  0.0903
44521ION     NA75737   5.078  24.690   1.306  0.2103 -0.3163 -0.0796
44522ION     NA75738  20.498   4.316   3.251 -0.3468  0.5722 -0.1041
44523ION     NA75739  18.656  25.257   0.928 -0.2076 -0.0069  0.1984
44524ION     NA75740  18.620   2.985   8.699  0.0955  0.4059  0.5651
44525ION     NA75741   0.762   9.994   1.078  0.4793  0.2069  0.2156
44526ION     NA75742  19.394  23.870   2.162  0.1522 -0.6393 -0.0452
44527ION     NA75743   5.947  16.498   7.855 -0.0673 -0.2916 -0.3071
44528ION     NA75744  22.890  11.170   0.418  0.3948  0.2154 -0.2877
44529ION     NA75745  13.432  11.555   0.598 -0.1882 -0.2725 -0.1667
44530ION     NA75746   7.070  15.664   8.665 -0.0536  0.0654 -0.4774
44531ION     NA75747  20.222  12.160   9.112  0.0519  0.6159  0.0810
44532ION     NA75748  13.083   2.905   3.537 -0.1105 -0.1048  0.1012
44533ION     NA75749  24.893  25.473   2.992  0.2486  0.3715 -0.1601
44534ION     NA75750  25.641  11.374   3.292  0.1897  0.7296 -0.0701
44535ION     NA75751   8.465  19.058   2.277  0.0058 -0.0104 -0.2664
44536ION     NA75752   4.451  18.847   9.218 -0.1529 -0.0582 -0.1875
44537ION     NA75753   2.398   5.611   0.969 -0.0102  0.2095 -0.1551
44538ION     NA75754  26.451   3.083   1.126 -0.3630 -0.0098 -0.0243
44539ION     NA75755   4.034   5.586   3.082  0.0229  0.2423  0.3353
44540ION     NA75756  13.900  24.558   0.559 -0.0581  0.1237 -0.3078
44541ION     NA75757  23.827  16.488   2.777 -0.0827 -0.4660 -0.1787
44542ION     NA75758   6.863  20.326   1.714 -0.0444 -0.7115 -0.3340
44543ION     NA75759  13.575  23.400   2.870  0.2859  0.2488  0.0614
44544ION     NA75760   0.112   3.691   2.636  0.1197 -0.2020  0.5014
44545ION     NA75761  22.352  27.103   9.800 -0.4978  0.1931  0.1167
44546ION     NA75762  12.960  25.953   9.316 -0.0699 -0.4496 -0.3256
44547ION     NA75763  18.371  23.122   3.503 -0.1660  0.1565 -0.1031
44548ION     NA75764   4.435  15.231   2.842  0.2721 -0.2044  0.2481
44549ION     NA75765   9.116  10.597   0.701 -0.0396  0.0029 -0.2104
44550ION     NA75766  13.276  24.060   2.533  0.2782  0.0442 -0.0006
44551ION     NA75767  26.770  17.933   0.184 -0.2372 -0.2708  0.1451
44552ION     NA75768  12.470   3.731   3.546  0.0924  0.4026  0.1915
44553ION     NA75769  20.774   0.014   2.463 -0.1289 -0.1639 -0.2495
44554ION     NA75770   5.623  23.980  10.302 -0.0582  0.0369 -0.0593
44555ION     NA75771  21.068  22.574   1.380 -0.4446 -0.1765 -0.0052
44556ION     NA75772  18.001   4.983   2.793 -0.0848  0.1925  0.4849
44557ION     NA75773  10.665  12.350   3.357 -0.2266 -0.1587  0.1493
44558ION     NA75774  14.133  12.772   3.563 -0.2230  0.2668  0.0629
44559ION     NA75775  12.272  24.126   3.286 -0.0389 -0.3972  0.2237
44560ION     NA75776  20.902  26.794   2.483  0.2722 -0.0795 -0.0336
44561ION     NA75777  10.514   2.130   7.885  0.2011  0.0804 -0.0444
44562ION     NA75778  16.689  19.132  10.222  0.1239  0.3138 -0.1228
44563ION     NA75779   6.550   0.023   8.197 -0.0151  0.3611  0.1018
44564ION     NA75780  12.150   1.849   3.186  0.1920  0.1384  0.2849
44565ION     NA75781  25.189   0.909   1.190  0.4548  0.0778 -0.0557
44566ION     NA75782   7.894   6.568   2.447 -0.0454 -0.1944 -0.0501
44567ION     NA75783   2.641   2.679  10.094  0.4049 -0.1136  0.3404
44568ION     NA75784  21.244  12.908   1.513  0.3622  0.2312 -0.1406
44569ION     NA75785  21.441  12.357  10.322 -0.5304 -0.8298  0.1282
44570ION     NA75786   7.078  20.957   1.971  0.7116 -0.3743  0.0462
44571ION     NA75787  20.712   2.379   9.282  0.1661  0.2007 -0.1591
44572ION     NA75788  15.619  18.429   9.120  0.3105  0.1355 -0.0666
44573ION     NA75789  24.258   4.828   8.260  0.0605  0.3380  0.2550
44574ION     NA75790   2.563   1.612   1.444 -0.0924  0.1774  0.2727
44575ION     NA75791   1.212  22.411   3.355  0.4605 -0.4694  0.0945
44576ION     NA75792  10.652   5.252  10.377 -0.3273  0.2689 -0.1295
44577ION     NA75793  21.501  23.356   8.423 -0.3321 -0.2413 -0.1407
44578ION     NA75794  10.012  20.659   1.726  0.1649 -0.2965  0.0081
44579ION     NA75795   3.479   5.201   2.629 -0.3203  0.2147  0.1977
44580ION     NA75796   4.566   4.740   8.034 -0.0206 -0.0352 -0.0850
44581ION     NA75797  23.951   1.318   8.319  0.2022 -0.3616 -0.2038
44582ION     NA75798  22.939   0.845   7.894  0.4045 -0.3618 -0.1250
44583ION     NA75799  21.104  18.429   9.477  0.3817 -0.0223  0.4555
44584ION     NA75800  24.254  16.885   1.373 -0.1981  0.0053 -0.0214
44585ION     NA75801  19.667  26.898   1.992 -0.1398 -0.1395  0.3478
44586ION     NA75802  15.608  15.709   1.957 -0.1625  0.2787  0.0152
44587ION     NA75803  18.595  10.260   1.395  0.0660  0.1656 -0.0051
44588ION     NA75804  27.118   4.916   3.501 -0.4039  0.0900  0.1899
44589ION     NA75805   1.076  19.881   9.830 -0.1297 -0.2530  0.1324
44590ION     NA75806  21.979  10.578   0.589 -0.3545  0.0691  0.2317
44591ION     NA75807  11.924  14.115  10.355 -0.0059 -0.0586 -0.1838
44592ION     NA75808  15.547  15.287   2.537 -0.0934  0.2791  0.2644
44593ION     NA75809   4.394  16.966   3.022 -0.2624  0.3618 -0.1207
44594ION     NA75810   3.501  19.549   9.552 -0.2709  0.0024 -0.1005
44595ION     NA75811  27.485   4.326   3.119  0.2424 -0.2859  0.3378
44596ION     NA75812  10.356  20.770   3.276  0.3836 -0.5887 -0.1490
44597ION     NA75813  22.201   5.778   2.962  0.2264 -0.0725  0.0188
44598ION     NA75814  13.144  22.752   7.694  0.1215 -0.2270 -0.2023
44599ION     NA75815  15.559  13.284   1.552 -0.3995  0.2257 -0.4623
44600ION     NA75816  11.079   8.174   8.568 -0.2678 -0.0273  0.1301
44601ION     NA75817   7.971  16.850   0.662  0.0052 -0.2803 -0.0760
44602ION     NA75818  20.363   1.583   3.398  0.2890 -0.6350  0.1330
44603ION     NA75819  16.858   1.519   0.046  0.4564  0.3216 -0.0075
44604ION     NA75820   1.570  22.845   3.093 -0.7415 -0.1553  0.3570
44605ION     NA75821   4.723   8.192   2.253  0.3063  0.2121 -0.4425
44606ION     NA75822   7.057  16.705   2.794  0.1648 -0.1665 -0.2167
44607ION     NA75823  26.924  25.730   0.708  0.2088  0.0135  0.0945
44608ION     NA75824  20.986   8.612   0.653 -0.0321 -0.0889 -0.0599
44609ION     NA75825  21.109   0.172   0.249  0.4435 -0.0700  0.1106
44610ION     NA75826  12.080  20.567   2.574 -0.2336 -0.1022 -0.0032
44611ION     NA75827  22.635  18.598   9.767  0.0332 -0.1402 -0.0299
44612ION     NA75828  21.812  27.543   2.725 -0.2431  0.2409  0.1217
44613ION     NA75829  11.034  21.254   3.340  0.3575  0.1921  0.0917
44614ION     NA75830  21.502  21.342   3.518 -0.1811 -0.2456  0.1585
44615ION     NA75831   4.391  22.850   3.555  0.1290  0.3629 -0.1061
44616ION     NA75832   4.038   7.753   1.632 -0.2365  0.0835 -0.1422
44617ION     NA75833  20.736   3.866   2.554  0.1310  0.0756 -0.0012
44618ION     NA75834  27.409  15.418   3.327  0.1462  0.1122  0.1231
44619ION     NA75835   0.021  24.520   9.747 -0.1385 -0.1483 -0.0242
44620ION     NA75836  23.616  21.103   2.851  0.4704  0.3285 -0.2392
44621ION     NA75837  25.610   4.109   3.777  0.1772 -0.0239 -0.0830
44622ION     NA75838  18.612   4.464   1.450 -0.3427  0.0709  0.0479
44623ION     NA75839  26.804  15.531   2.728  0.2335  0.1441  0.0951
44624ION     NA75840   4.316  22.110   2.648 -0.1543 -0.0682 -0.2895
44625ION     NA75841  19.220   1.101   2.528 -0.0788  0.1152  0.3754
44626ION     NA75842   8.276  10.122   8.469 -0.2881 -0.0003 -0.2484
44627ION     NA75843  15.288  25.807   3.881  0.2637 -0.1606 -0.1672
44628ION     NA75844  19.597   2.162   8.484  0.1651 -0.1186 -0.2382
44629ION     NA75845   1.919   4.997   2.813 -0.2767 -0.1138  0.3502
44630ION     NA75846   4.065   8.207   2.325 -0.0293 -0.4453 -0.0576
44631ION     NA75847  16.643   1.621   9.007  0.6437  0.1720  0.0045
44632ION     NA75848  10.805   2.458  10.343 -0.0556 -0.1386  0.3370
44633ION     NA75849  10.175  11.187   2.842 -0.1843 -0.3991  0.1482
44634ION     NA75850   9.345  19.502   9.411 -0.2007  0.3247  0.1571
44635ION     NA75851  13.619  22.404  10.238 -0.0243  0.2354  0.0927
44636ION     NA75852  12.889  15.976   9.081  0.2821 -0.0316  0.3062
44637ION     NA75853   6.296  24.284   3.948 -0.1820  0.0888 -0.0338
44638ION     NA75854  10.851  22.426   8.844  0.4011  0.3026  0.1158
44639ION     NA75855   6.156  12.959   0.930  0.0662 -0.2232 -0.5441
44640ION     NA75856   0.596  23.113  10.381 -0.2577 -0.0566  0.1009
44641ION     NA75857  10.641  18.338   1.485 -0.0037 -0.1479 -0.0955
44642ION     NA75858  20.222   1.472   7.682  0.0851  0.2508  0.0683
44643ION     NA75859  18.729  12.911   3.215  0.0480  0.4136 -0.4427
44644ION     NA75860   3.958  19.907   2.767 -0.0643  0.1801  0.3340
44645ION     NA75861  20.053  22.697   9.505  0.5378 -0.1473  0.2186
44646ION     NA75862  15.021  22.287  10.525  0.1196  0.1523 -0.4439
44647ION     NA75863   2.705  20.038   1.826  0.5305 -0.0527 -0.3305
44648ION     NA75864   9.823  27.197   1.384 -0.0648  0.0835 -0.1895
44649ION     NA75865   5.688  11.173   8.014  0.2704  0.0566 -0.0050
44650ION     NA75866  22.027   5.281   9.819  0.3234  0.0659  0.0945
44651ION     NA75867  10.983  11.522   9.562  0.1122  0.3343  0.1973
44652ION     NA75868  24.604   0.422   8.429 -0.3131 -0.1058 -0.2637
44653ION     NA75869   4.841  22.068   3.364  0.3906  0.3417 -0.1774
44654ION     NA75870  23.245  10.074   2.836  0.3689 -0.3752 -0.3867
44655ION     NA75871  26.332  21.925   2.978 -0.1023  0.3876 -0.0421
44656ION     NA75872   6.485  16.619   0.208  0.0010 -0.0250 -0.0187
44657ION     NA75873  17.916   9.870   1.711  0.3735  0.1998  0.6780
44658ION     NA75874   2.741   3.378   0.136 -0.1509 -0.0941 -0.0149
44659ION     NA75875  12.195  11.392   9.422  0.0854  0.0077  0.1503
44660ION     NA75876   0.350   1.173   1.289  0.2628  0.4681 -0.1986
44661ION     NA75877  18.444  12.824   1.697 -0.6902  0.2383 -0.1611
44662ION     NA75878  17.933  16.407   9.228 -0.2006 -0.2921 -0.0207
44663ION     NA75879  19.704   0.407   0.146 -0.0222  0.1193 -0.2392
44664ION     NA75880  12.098  10.144   3.482  0.0501  0.3553 -0.1379
44665ION     NA75881  22.941  18.738   0.189  0.1415 -0.2694  0.2371
44666ION     NA75882  21.511  11.748   9.260  0.2200  0.3115  0.0751
44667ION     NA75883   4.967   5.943   8.218 -0.0559 -0.4940  0.2224
44668ION     NA75884  19.798   7.828  10.541 -0.2631 -0.4217 -0.0372
44669ION     NA75885  11.706  23.069   0.013 -0.2989 -0.1452  0.1189
44670ION     NA75886  21.619  24.540   1.884  0.2118 -0.3700  0.1434
44671ION     NA75887  18.230  23.136   2.750 -0.5269 -0.4454 -0.0479
44672ION     NA75888  20.780  26.971   9.958  0.0192 -0.1156  0.0731
44673ION     NA75889  27.466   3.186   3.281  0.5630  0.2625 -0.0050
44674ION     NA75890  11.936  20.091   1.992  0.2142 -0.2758 -0.0928
44675ION     NA75891  14.025  25.305  10.308 -0.4971  0.4301 -0.3786
44676ION     NA75892  13.570   2.293   9.688  0.1914 -0.2055 -0.4806
44677ION     NA75893  26.534  16.731   7.713  0.0120 -0.1320  0.4513
44678ION     NA75894  22.815  27.299   2.449 -0.2165  0.5002  0.2418
44679ION     NA75895   9.429   9.177   2.880 -0.1668  0.0271  0.0018
44680ION     NA75896  19.995   6.235   2.473  0.0164 -0.1383  0.6444
44681ION     NA75897  11.911  25.488   3.694  0.1831 -0.1079  0.2686
44682ION     NA75898   2.604   3.496   3.153  0.1935  0.4244  0.3835
44683ION     NA75899   9.507  25.774   0.646 -0.1228  0.4896  0.0146
44684ION     NA75900  27.138  25.862   8.149 -0.1354  0.0595  0.2024
44685ION     NA75901   7.218  12.556   8.357 -0.3378  0.4650  0.0601
44686ION     NA75902  10.513  17.571   1.326 -0.0636  0.1432 -0.2361
44687ION     NA75903  21.325  27.594   2.060  0.0563  0.0972 -0.0428
44688ION     NA75904  23.155  16.619   2.137 -0.1707  0.4979 -0.3307
44689ION     NA75905   1.517  14.266   9.510  0.1974  0.0122  0.0948
44690ION     NA75906   5.873   8.209   2.558  0.3001 -0.2606 -0.4618
44691ION     NA75907  17.177   9.577   2.883  0.2061 -0.1086 -0.2458
44692ION     NA75908  20.871   7.201   2.274  0.3380  0.1331 -0.2379
44693ION     NA75909  25.058  24.587   1.352 -0.0372  0.1684 -0.3851
44694ION     NA75910   1.058  22.728   2.318 -0.4491  0.0481 -0.2408
44695ION     NA75911  13.895   0.474   0.930  0.1847 -0.0010 -0.1562
44696ION     NA75912  14.578   4.157   8.721 -0.1587 -0.0160  0.0241
44697ION     NA75913  20.499  27.070   2.854 -0.0785  0.0841  0.0218
44698ION     NA75914  27.236   1.769   8.684  0.3404 -0.3148 -0.4444
44699ION     NA75915   8.582  17.939   9.965 -0.2694 -0.2984 -0.2775
44700ION     NA75916   8.685   6.406   8.256  0.1912 -0.0959  0.1223
44701ION     NA75917  13.736  12.913   2.606  0.3523 -0.3990  0.1029
44702ION     NA75918  26.143  26.232   8.812  0.0863  0.4253  0.1385
44703ION     NA75919   7.341  10.981   9.502  0.1119  0.1938 -0.2335
44704ION     NA75920  22.017  21.404   0.263 -0.0605 -0.1475  0.0120
44705ION     NA75921  20.542  14.550   7.134  0.1274 -0.0959  0.2161
44706ION     NA75922  11.906  10.192   0.507  0.0706  0.1397  0.2263
44707ION     NA75923  20.957  21.279   2.489 -0.1814  0.6788  0.2698
44708ION     NA75924  16.580  13.450   2.214 -0.0736 -0.2514 -0.2560
44709ION     NA75925   2.730  24.449   1.748 -0.2700  0.4686  0.0265
44710ION     NA75926  15.692   6.378   8.212 -0.2484 -0.0567  0.4814
44711ION     NA75927  17.030  12.673   9.719 -0.3777  0.1727  0.1174
44712ION     NA75928  27.607  22.604   0.538 -0.0605  0.1775  0.1473
44713ION     NA75929  10.565   8.971   2.209  0.1223 -0.2116  0.2007
44714ION     NA75930  14.845  12.413  10.489 -0.3345  0.2680  0.4342
44715ION     NA75931  16.174   6.629   2.910  0.3742  0.0522 -0.0230
44716ION     NA75932  22.556   6.676   9.113 -0.0467  0.0832 -0.1182
44717ION     NA75933   8.006  12.678   1.965 -0.1662 -0.0497  0.0429
44718ION     NA75934   0.354   0.456   2.428 -0.0919  0.2890 -0.5247
44719ION     NA75935   6.706  21.067   2.814 -0.4481 -0.0625  0.6334
44720ION     NA75936  12.779  19.009   2.733  0.0182 -0.2127 -0.0119
44721ION     NA75937   3.093   1.397   8.763  0.0218 -0.2598  0.0731
44722ION     NA75938  24.548  16.398   8.497  0.1297 -0.0062 -0.3023
44723ION     NA75939  17.388  17.294   1.827 -0.1938 -0.0659  0.6017
44724ION     NA75940  20.326  23.391   9.070 -0.0911 -0.0124 -0.0729
44725ION     NA75941   0.709  19.553  10.253  0.3908 -0.1114 -0.4489
44726ION     NA75942  24.003  23.156   2.131 -0.1776  0.1819  0.0338
44727ION     NA75943  14.897   2.389   2.981 -0.0766  0.2787  0.1369
44728ION     NA75944  26.335  15.796   0.161 -0.0634 -0.3596  0.1824
44729ION     NA75945  12.556   8.138   1.216  0.0030  0.0288 -0.1989
44730ION     NA75946   3.169  10.724   9.467 -0.1302  0.2589 -0.1116
44731ION     NA75947  16.354  11.452   0.888  0.0586 -0.2192  0.0603
44732ION     NA75948   0.839  19.642   0.599 -0.1102  0.1834  0.2918
44733ION     NA75949   4.891   4.158   2.296 -0.0635 -0.4699  0.3664
44734ION     NA75950  16.578  11.633   2.306  0.1951 -0.0308 -0.0833
44735ION     NA75951   2.132   3.214   2.604 -0.1574  0.0993 -0.2112
44736ION     CL75952  20.834  12.198   8.777 -0.2059 -0.0741 -0.3003
44737ION     CL75953  15.082  23.694   0.533  0.2728  0.3138  0.1952
44738ION     CL75954   7.042  11.156   9.715 -0.0753  0.0552 -0.1551
44739ION     CL75955  10.192   0.647   2.279  0.2189  0.2426 -0.1772
44740ION     CL75956  25.108  13.458   9.802 -0.3297  0.0660  0.0285
44741ION     CL75957  24.145   3.157   2.182 -0.0155  0.5907 -0.1276
44742ION     CL75958  19.942  13.204   2.142 -0.2598 -0.1732 -0.1646
44743ION     CL75959  14.693   1.522   0.035  0.4152  0.1448 -0.0718
44744ION     CL75960  26.262  27.271  10.020  1.0442 -0.2658  0.2629
44745ION     CL75961  15.990  13.081   2.583  0.0940  0.4051  0.3818
44746ION     CL75962  22.888  15.170   2.348  0.2471 -0.3703  0.4511
44747ION     CL75963  24.673  27.298   2.362  0.5954  0.1523  0.0740
44748ION     CL75964  26.654  23.183   1.470 -0.2277  0.5459  0.0851
44749ION     CL75965  17.178  24.572   2.821  0.3532  0.0472  0.1951
44750ION     CL75966   6.827  15.690   9.967 -0.0565  0.0834 -0.2410
44751ION     CL75967  10.467  23.835   9.056 -0.2915  0.0552  0.3912
44752ION     CL75968  17.254   5.734   7.966 -0.4457  0.2347  0.1603
44753ION     CL75969   1.374   9.362   9.377  0.0787  0.0156  0.0349
44754ION     CL75970   9.364  25.416   1.920  0.2067  0.0660  0.1341
44755ION     CL75971  22.622   9.838   9.931 -0.0223 -0.2193  0.1779
44756ION     CL75972   4.167   8.959   9.588 -0.1296  0.1360  0.2999
44757ION     CL75973  19.819   6.007   7.708  0.0411 -0.0594  0.0613
44758ION     CL75974  16.631   1.540   0.349 -0.3105  0.0637  0.3586
44759ION     CL75975  23.719   5.052   1.154 -0.1372 -0.0654  0.3081
44760ION     CL75976  22.747  13.388  10.331 -0.3814 -0.2648  0.3660
44761ION     CL75977  17.679  27.307   1.053 -0.4163  0.2773  0.3486
44762ION     CL75978   7.800  12.498   8.543  0.2627  0.3830  0.1895
44763ION     CL75979  17.718  19.861   2.019  0.0752 -0.2855 -0.0378
44764ION     CL75980  14.572   1.561   2.957 -0.1260  0.0221  0.0692
44765ION     CL75981   2.396  24.360   2.313  0.0694 -0.0652  0.1944
44766ION     CL75982  14.036   8.269   1.715  0.1751  0.0355 -0.1490
44767ION     CL75983  24.886   4.075   1.941 -0.2408 -0.1946  0.4738
44768ION     CL75984  20.131   0.711  10.217 -0.8762  0.1038 -0.0377
44769ION     CL75985   3.125   1.450   0.058  0.0643  0.3123 -0.2361
44770ION     CL75986  17.549   0.294   3.185 -0.0908  0.1514  0.1164
44771ION     CL75987  22.933   0.986   1.207 -0.3718  0.2258 -0.0875
44772ION     CL75988   0.579  25.716   8.984  0.1531 -0.5444  0.1360
44773ION     CL75989   3.726  18.748   9.681 -0.2389  0.1044 -0.2196
44774ION     CL75990   6.667   7.600   9.302  0.1533 -0.2634 -0.0221
44775ION     CL75991  27.552  18.848   1.494  0.4551  0.2582  0.0101
44776ION     CL75992  24.563   0.361   8.841 -0.2218  0.1338  0.2543
44777ION     CL75993  27.125  14.780   2.444  0.3607  0.1353 -0.1668
44778ION     CL75994  13.835  20.270   9.607  0.1280  0.3154  0.3009
44779ION     CL75995  27.157  25.020   0.619 -0.2726 -0.3848 -0.1013
44780ION     CL75996  18.874  24.590   8.547  0.1369 -0.1429  0.4215
44781ION     CL75997  21.620  21.164   8.374  0.0859 -0.3369  0.2991
44782ION     CL75998  15.190  26.041   0.937  0.2734  0.0198 -0.1626
44783ION     CL75999  23.278  22.646   2.756 -0.2848 -0.1378  0.3710
44784ION     CL76000  10.064  25.142   9.212  0.2219 -0.1611 -0.0615
44785ION     CL76001   9.587  15.306   1.049  0.0215 -0.2509  0.2896
44786ION     CL76002  16.404  10.808   0.995  0.0595 -0.7906  0.3536
44787ION     CL76003  23.702  10.069   2.479  0.1262 -0.0310  0.0105
44788ION     CL76004   9.315   4.767   2.271 -0.2309  0.1999 -0.2239
44789ION     CL76005  15.913  11.670   8.072  0.2359 -0.2000  0.1379
44790ION     CL76006  14.908   5.656   8.913 -0.0932  0.0941 -0.2653
44791ION     CL76007  10.724  11.445   8.456 -0.1550 -0.1637 -0.3281
44792ION     CL76008   8.413   9.813   0.573  0.2308 -0.7518  0.1187
44793ION     CL76009  12.786  14.936   8.731  0.2732  0.3235  0.1044
44794ION     CL76010  18.787   4.166  10.147  0.0078 -0.0154 -0.3419
44795ION     CL76011  13.428  26.516  10.229 -0.1868 -0.1989 -0.0698
44796ION     CL76012  24.172   6.124   9.241 -0.0798  0.1163  0.1136
44797ION     CL76013   0.020   5.623   0.673 -0.2927  0.2538  0.1786
44798ION     CL76014  25.382  16.137   2.148  0.0945 -0.2250  0.3035
44799ION     CL76015   9.119  22.440   1.117  0.0320 -0.1491  0.4381
44800ION     CL76016  16.195   2.559   2.606  0.2719  0.0126  0.4920
44801ION     CL76017   2.158  16.790   1.777 -0.1157 -0.2038  0.1555
44802ION     CL76018   9.975  20.804   0.056 -0.0749 -0.0999 -0.2564
44803ION     CL76019  20.431  25.759   1.279  0.1795 -0.0742  0.2574
44804ION     CL76020  20.598  13.269   1.911 -0.2821 -0.1433  0.1569
44805ION     CL76021  10.002  22.167   8.194  0.0825  0.0009  0.0843
44806ION     CL76022  12.055  16.287   2.273 -0.0465 -0.1356 -0.3272
44807ION     CL76023  22.257   4.238   1.621  0.3507 -0.3123 -0.3118
44808ION     CL76024   0.719  16.544   0.585 -0.0147  0.4465 -0.0747
44809ION     CL76025  11.716  12.867   2.880  0.0395 -0.4828  0.0697
44810ION     CL76026  14.224  10.555   1.157  0.0180 -0.1060  0.0553
44811ION     CL76027  20.618   0.530   3.034 -0.2385 -0.0106  0.3047
44812ION     CL76028   7.510   7.242   2.141 -0.4792  0.1170  0.2002
44813ION     CL76029   8.362  19.491   9.034  0.0130 -0.0481 -0.0432
44814ION     CL76030   6.905  20.607   2.393  0.8268  0.2871 -0.1568
44815ION     CL76031   0.086  17.981   0.080 -0.0210  0.0298  0.2488
44816ION     CL76032  11.384  15.829   0.054 -0.1044 -0.3233  0.1336
44817ION     CL76033   3.270  21.841   0.938  0.2384 -0.3921 -0.3105
44818ION     CL76034  13.177   7.395   0.335  0.3653 -0.3024 -0.0081
44819ION     CL76035  23.125  12.975   9.930 -0.0477  0.7179 -0.2260
44820ION     CL76036   7.140   8.527   0.473 -0.2376 -0.1687  0.3598
44821ION     CL76037  11.753  23.614  10.367 -0.2166  0.2974  0.0245
44822ION     CL76038  14.922   1.779   3.087 -0.0834  0.3054 -0.4175
44823ION     CL76039   8.136   4.486   9.216  0.0149  0.1714 -0.3733
44824ION     CL76040  13.213  11.408   9.066 -0.4276 -0.2675  0.2329
44825ION     CL76041  20.357   7.817   8.816  0.2914 -0.1539 -0.2664
44826ION     CL76042   4.221   5.763   9.633 -0.2916 -0.1856  0.1756
44827ION     CL76043  11.823  19.104   0.581 -0.3229  0.0653  0.5650
44828ION     CL76044   5.120   4.616  10.535  0.2434 -0.1629 -0.1126
44829ION     CL76045  18.294  22.053   2.841  0.0941 -0.3275 -0.0295
44830ION     CL76046  19.532  11.965   9.043  0.1442  0.2458  0.2430
44831ION     CL76047   3.259  12.546   2.110 -0.1424 -0.0928 -0.2827
44832ION     CL76048  13.596  27.196   0.186  0.4986 -0.1303 -0.1844
44833ION     CL76049   4.772   5.688   8.337 -0.2563 -0.1136  0.0312
44834ION     CL76050  26.656  18.655   9.703 -0.0984  0.1786 -0.2833
44835ION     CL76051   2.581  17.740   1.867 -0.4746  0.1855 -0.2690
44836ION     CL76052  12.980  26.076   8.993  0.3583  0.0336  0.0266
44837ION     CL76053   4.093   3.271   2.303 -0.0263  0.2537  0.4565
44838ION     CL76054  13.942  23.039   8.560  0.0320 -0.2495  0.3981
44839ION     CL76055   7.699  24.215   9.005  0.0976  0.0778  0.0649
44840ION     CL76056  15.326   0.710   2.586  0.0076  0.4802 -0.1669
44841ION     CL76057  24.792  10.436   9.481  0.4045  0.0222 -0.0578
44842ION     CL76058  23.636  24.343   2.767 -0.0900  0.0583  0.1347
44843ION     CL76059  18.888  15.436   0.213  0.1521  0.2220 -0.3686
44844ION     CL76060   8.298  17.065   2.531  0.2796 -0.2795 -0.0142
44845ION     CL76061  17.488   1.978   3.464  0.1457 -0.1722  0.0972
44846ION     CL76062  14.232  23.851   9.010 -0.2291  0.0008 -0.0525
44847ION     CL76063  24.151   9.139   1.127  0.1090 -0.0042  0.1998
44848ION     CL76064  16.716   7.061   1.211 -0.0255 -0.0332  0.1157
44849ION     CL76065  16.448   1.874   8.892  0.3732 -0.1517 -0.0484
44850ION     CL76066   1.610  27.441   0.194  0.3293  0.1678 -0.2976
44851ION     CL76067  12.622  21.205   9.328  0.0396  0.0335 -0.1406
44852ION     CL76068   8.565   2.706   1.298 -0.6448  0.2373  0.0298
44853ION     CL76069  10.161  15.753   2.981  0.1866  0.1642  0.0206
44854ION     CL76070   7.091  24.577   9.315  0.3454 -0.1543 -0.3727
44855ION     CL76071  22.700   8.156  10.477 -0.0543 -0.0412  0.3790
44856ION     CL76072   1.828   9.889   2.154  0.2014  0.4980  0.1580
44857ION     CL76073  22.733  18.776  10.438 -0.0247 -0.0393  0.4705
44858ION     CL76074   5.410   5.604   2.801 -0.1185 -0.0225 -0.6951
44859ION     CL76075  12.564   3.558   8.679 -0.1574 -0.2627 -0.5530
44860ION     CL76076  24.331  19.145   1.175 -0.1268 -0.4348 -0.0033
44861ION     CL76077   3.564  11.544   8.947  0.0111  0.4811 -0.1165
44862ION     CL76078  17.216  22.373   0.145  0.1409 -0.0272  0.0996
44863ION     CL76079  16.114   7.581   8.668 -0.2724  0.5076 -0.2293
44864ION     CL76080   5.600   7.168   0.559 -0.0880  0.3772 -0.3930
44865ION     CL76081   9.713   7.445   9.950  0.0821  0.3291  0.4252
44866ION     CL76082  20.209  19.188   9.333  0.0116  0.0848 -0.0297
44867ION     CL76083  10.062  19.978   0.817  0.3114 -0.3931 -0.3489
44868ION     CL76084  25.522  15.387   0.579 -0.0549  0.4599 -0.1185
44869ION     CL76085  19.101   2.293   1.849 -0.2554 -0.9248  0.2801
44870ION     CL76086   3.688   5.991   3.482 -0.6674 -0.0200 -0.0774
44871ION     CL76087   6.244  26.851   1.832 -0.1723  0.1756 -0.1209
44872ION     CL76088   5.921   6.104   8.336  0.2716 -0.0472 -0.3754
44873ION     CL76089   7.514  18.500   0.843  0.5708 -0.4628 -0.4017
44874ION     CL76090  15.579  24.541   0.251  0.5165  0.3534 -0.0731
44875ION     CL76091  22.624   8.006   2.614 -0.1035 -0.3344  0.5088
44876ION     CL76092   9.615  21.279   8.888  0.0118  0.4757  0.4544
44877ION     CL76093  12.931   6.565   1.715  0.0933  0.1855 -0.2794
44878ION     CL76094  24.073  27.615   2.551  0.0745 -0.0135 -0.3716
44879ION     CL76095   9.306   6.270   2.172 -0.0384  0.5029  0.0190
44880ION     CL76096   5.925  27.226   2.668  0.6696 -0.1029 -0.0801
44881ION     CL76097  20.766   8.588   8.810 -0.5773 -0.1171 -0.1375
44882ION     CL76098  10.144  14.619   8.518 -0.0014  0.4147  0.0099
44883ION     CL76099  17.248   3.092   9.319  0.6714 -0.1531 -0.1857
44884ION     CL76100  10.194   5.274   0.072 -0.1518 -0.5237  0.2334
44885ION     CL76101  12.800  15.636   9.094 -0.2580 -0.0300  0.1923
44886ION     CL76102  19.029   9.312   2.590  0.2818  0.3517 -0.0365
44887ION     CL76103   2.028  21.637  10.345  0.3716 -0.0372  0.0008
44888ION     CL76104  12.864  25.125  10.061 -0.1772  0.1658  0.4991
44889ION     CL76105   5.034  24.355   8.983 -0.3377  0.3523 -0.3160
44890ION     CL76106  14.860   8.622   3.098  0.6110 -0.6254  0.3324
44891ION     CL76107   4.833   9.350   2.149  0.3128 -0.0841  0.1810
44892ION     CL76108   6.285  15.454   9.559 -0.2346  0.1506  0.3077
44893ION     CL76109  12.303   0.345   2.148  0.1447  0.1259  0.0329
44894ION     CL76110   5.474  19.550   0.982  0.1894 -0.1360 -0.3531
44895ION     CL76111   2.319  11.511  10.179  0.1358  0.0960  0.1188
44896ION     CL76112  20.151  17.543   1.283  0.3978  0.0221 -0.1798
44897ION     CL76113  10.342   7.481   7.800 -0.6028  0.4514  0.0140
44898ION     CL76114  22.548   3.922   0.537  0.0822  0.7190 -0.5936
44899ION     CL76115  22.414  18.343   7.921  0.0415  0.0092  0.1592
44900ION     CL76116   6.477   4.532   1.500  0.4273  0.2419 -0.2038
44901ION     CL76117  13.198   3.857   2.664  0.1183 -0.4055  0.3634
44902ION     CL76118  17.221   5.478   2.715 -0.2401  0.1611 -0.1111
44903ION     CL76119   6.702  26.507   3.309 -0.1942 -0.4470 -0.1377
44904ION     CL76120  13.539   0.146   1.176  0.4117 -0.4165 -0.1036
44905ION     CL76121   9.146   7.994   1.678  0.1158 -0.2352  0.3988
44906ION     CL76122  21.947  13.355   8.353 -0.1854 -0.0490  0.3191
44907ION     CL76123  15.723   4.352   8.363 -0.5513  0.2441 -0.2467
44908ION     CL76124   6.083   1.026  10.328  0.0220 -0.1308 -0.1478
44909ION     CL76125   5.282  24.885   1.045  0.2926 -0.1393  0.1524
44910ION     CL76126   9.439  20.073   1.028 -0.6447 -0.3588 -0.0451
44911ION     CL76127  19.151   7.373   2.359 -0.0361  0.1668 -0.1411
44912ION     CL76128  26.555  17.048   8.270 -0.3640 -0.6411  0.1142
44913ION     CL76129   8.463   7.700   0.702 -0.0062 -0.0836 -0.2789
44914ION     CL76130  26.844  17.689   0.511 -0.2174  0.2600 -0.1401
44915ION     CL76131   4.655  25.655   1.814 -0.5895  0.2084 -0.1238
44916ION     CL76132   2.236   6.116   2.365  0.1428  0.7867  0.4262
44917ION     CL76133   4.650  26.555  10.169  0.1812  0.0617 -0.1141
44918ION     CL76134  21.749  14.844   1.949  0.1803 -0.3359  0.3483
44919ION     CL76135   8.750  24.834   1.027  0.2884 -0.1531  0.4218
44920ION     CL76136   6.787  17.763   8.192 -0.4799  0.2355 -0.2074
44921ION     CL76137  21.122   6.583   2.175  0.4330 -0.2022  0.1329
44922ION     CL76138  20.953  21.516   3.079 -0.0384  0.5460 -0.4186
44923ION     CL76139   7.016  15.434   8.415  0.2349 -0.4441  0.0202
44924ION     CL76140   0.026  15.742   9.634 -0.1195 -0.3780 -0.2585
44925ION     CL76141  12.943  26.964   2.047 -0.3200 -0.1675  0.1425
44926ION     CL76142  23.608   8.490   9.159 -0.0460 -0.5540  0.3491
44927ION     CL76143   5.853  10.839   8.337  0.0744 -0.2167 -0.1076
44928ION     CL76144   7.527  14.965   1.055  0.0502  0.3436  0.0649
44929ION     CL76145  11.253  11.885   9.840  0.4017 -0.1997 -0.2499
44930ION     CL76146   4.100   8.859   1.544  0.5236  0.3062  0.4641
44931ION     CL76147   0.076   3.149   8.539 -0.0692 -0.4102 -0.4745
44932ION     CL76148  21.747   1.010   9.432 -0.0324 -0.2060 -0.4211
44933ION     CL76149  24.299  21.568   3.028  0.4512 -0.0100  0.2372
44934ION     CL76150  12.242  25.721   1.946 -0.0499 -0.3233 -0.1729
44935ION     CL76151  22.560   3.116   2.029  0.2020  0.1978  0.2541
44936ION     CL76152  20.902  27.338   0.987 -0.1688 -0.1584  0.0614
44937ION     CL76153  25.817  23.321   0.699  0.4557 -0.3078 -0.5292
44938ION     CL76154  18.889  25.161   0.721 -0.1425  0.2269 -0.1709
44939ION     CL76155  12.730  27.399   3.183 -0.1224  0.1260  0.4014
44940ION     CL76156   1.864  26.839   2.754  0.3155 -0.0189  0.0428
44941ION     CL76157   4.627   3.662   1.595 -0.0744  0.0605  0.0844
44942ION     CL76158   2.226   5.548   0.682 -0.2729  0.2631 -0.1101
44943ION     CL76159  11.299   9.388   9.887 -0.0210  0.1520 -0.3613
44944ION     CL76160  20.260  23.115   8.746  0.4627  0.1222  0.3073
44945ION     CL76161  21.270  12.448   1.218  0.1422 -0.1593  0.3835
44946ION     CL76162  12.098  14.334   1.260 -0.2289 -0.0504 -0.1043
44947ION     CL76163  15.428  24.370   1.381 -0.3730  0.0518  0.1483
44948ION     CL76164  21.572  27.042   3.130  0.2653 -0.0602  0.3709
44949ION     CL76165  11.556   3.562   9.351  0.1419  0.4226 -0.4562
44950ION     CL76166   1.389  21.942  10.237  0.4999  0.1251 -0.0528
44951ION     CL76167  27.619  23.043  10.532  0.1582  0.0861  0.3198
44952ION     CL76168  13.571   0.780   9.153 -0.1766 -0.2479  0.3066
44953ION     CL76169  14.638  27.294   2.287  0.2572 -0.3968 -0.4394
44954ION     CL76170  17.584   6.468   9.095  0.2425  0.4383 -0.2207
44955ION     CL76171  15.131  21.721  10.044 -0.0337 -0.0621  0.0096
44956ION     CL76172  10.072   0.008   2.647  0.1419  0.4542  0.1016
44957ION     CL76173   9.288   9.610   1.500 -0.0573 -0.0476  0.0138
44958ION     CL76174  16.622   5.071   8.500  0.5347 -0.4791 -0.0654
44959ION     CL76175  22.460   3.315   0.045 -0.1099  0.1991 -0.1975
44960ION     CL76176  13.847   3.171   8.741 -0.3050  0.0161 -0.2102
44961ION     CL76177  21.008  13.201   9.016  0.2764  0.2060  0.0138
44962ION     CL76178  22.837  25.952   1.305 -0.2348 -0.5756  0.1528
44963ION     CL76179  20.105  21.765  10.138 -0.0894  0.1163  0.1067
44964ION     CL76180  20.105   1.726   8.777 -0.5632 -0.1811 -0.5563
44965ION     CL76181   8.455  23.913   0.487  0.2440 -0.5101  0.1327
44966ION     CL76182  21.196  15.465   2.099 -0.1411  0.3996  0.2731
44967ION     CL76183  18.073  11.142   9.973  0.1593  0.1637 -0.1874
44968ION     CL76184   0.658  23.069   1.903 -0.0271  0.1833 -0.2937
44969ION     CL76185  21.664  18.359   7.738 -0.6029  0.3507 -0.1247
44970ION     CL76186   4.468   4.566   9.339 -0.3816 -0.2325 -0.1242
44971ION     CL76187   0.403   3.907   9.418  0.1766 -0.2324  0.5184
44972ION     CL76188  13.321   8.115   9.321  0.0964  0.0450 -0.2634
44973ION     CL76189  13.726  12.928   0.461  0.2278  0.2689 -0.1746
44974ION     CL76190  15.736  24.106   2.859  0.0430  0.1149  0.0731
44975ION     CL76191  15.676  21.827   1.954 -0.1222  0.2275 -0.1726
44976ION     CL76192  25.682  24.943   8.712  0.4024  0.2632 -0.0108
44977ION     CL76193  10.191   9.827   1.163 -0.2642  0.2944  0.0954
44978ION     CL76194   4.183  19.318   9.047  0.1555 -0.2397 -0.1485
44979ION     CL76195  10.838  12.788   2.246 -0.4006 -0.0528  0.0110
44980ION     CL76196   0.076   4.971   1.465  0.3221 -0.3214 -0.4118
44981ION     CL76197   3.633  19.917   9.900 -0.0325  0.1014  0.0278
44982ION     CL76198   4.021  16.942   9.507  0.0332  0.5723 -0.2069
44983ION     CL76199   4.267   8.029   1.734 -0.1276 -0.1323  0.4443
44984ION     CL76200  13.877  15.923   2.288  0.1044  0.0721 -0.2408
44985ION     CL76201  11.655   3.976   0.827  0.0555  0.2810 -0.1009
44986ION     CL76202  12.371  19.747   3.195  0.0894 -0.3663 -0.3333
44987ION     CL76203  15.206  17.645   0.204 -0.0018  0.1207 -0.1725
44988ION     CL76204  24.314   1.628   9.001 -0.2096 -0.0855  0.0353
44989ION     CL76205  25.631  18.102   2.559  0.0240 -0.0498 -0.1568
44990ION     CL76206  19.382   0.719   2.514 -0.2910  0.2400 -0.2021
44991ION     CL76207   5.536   4.207   2.056  0.2408  0.0103 -0.4481
44992ION     CL76208   9.844  21.274   2.123  0.0828 -0.0623 -0.1313
44993ION     CL76209  27.247   2.087   2.411 -0.2700  0.1559  0.0854
44994ION     CL76210  26.774  10.512   3.115 -0.1155  0.2992  0.0712
44995ION     CL76211  21.787  21.479  10.536  0.2634 -0.0675  0.1816
44996ION     CL76212   5.211   8.077   2.379  0.0404  0.1342 -0.4708
44997ION     CL76213   2.916   5.933  10.491 -0.5314  0.1358  0.2314
44998ION     CL76214  21.162  27.152   1.488 -0.2520  0.1059 -0.1886
44999ION     CL76215  22.907  11.460   0.979  0.3435  0.1407 -0.1849
45000ION     CL76216  23.405  26.358   1.136 -0.0387  0.1662 -0.0472
45001ION     CL76217  23.732  20.539   2.661 -0.2241  0.0075 -0.3472
45002ION     CL76218   7.949  17.123   0.859 -0.1905  0.4278  0.0975
45003ION     CL76219   1.841  10.708   2.898  0.3867  0.2118  0.2181
45004ION     CL76220  25.753  22.979   9.543 -0.0425 -0.2000  0.0155
45005ION     CL76221   9.797  25.349   8.250  0.0767  0.0923 -0.0097
45006ION     CL76222  10.620  12.582   9.035  0.0565 -0.2117  0.1582
45007ION     CL76223  14.666   0.776   9.964 -0.2655  0.4855 -0.1518
45008ION     CL76224  11.800  24.821  10.044 -0.1478 -0.1663  0.0164
45009ION     CL76225   5.656  22.136   9.401  0.0065  0.1638  0.5490
45010ION     CL76226  13.482  24.542   0.585 -0.4735  0.6161 -0.1488
45011ION     CL76227   5.434  10.622   9.441  0.2569  0.1765 -0.0051
45012ION     CL76228  22.968   4.627   2.208  0.3357  0.2911  0.3686
45013ION     CL76229   4.650  16.127   2.963  0.4832 -0.0460 -0.4487
45014ION     CL76230  18.328  23.253   9.100  0.6297  0.6086  0.1193
45015ION     CL76231  18.423  12.240  10.411 -0.1974 -0.0644  0.0390
45016ION     CL76232  22.631  10.512   0.275  0.1901  0.2189 -0.4270
45017ION     CL76233  27.017  23.226   3.054 -0.3934 -0.2499 -0.6349
45018ION     CL76234  27.330  21.219   8.567  0.1962 -0.4868  0.2853
45019ION     CL76235   9.826  15.413   8.924 -0.4679  0.2847  0.1012
45020ION     CL76236   6.960   9.677   0.754 -0.0778  0.0240 -0.0804
45021ION     CL76237  11.765  23.121   0.397  0.2122  0.4300  0.2908
45022ION     CL76238   4.742  18.212   8.442 -0.4310 -0.0824 -0.1356
45023ION     CL76239  22.980  15.490   1.043  0.0966  0.1350  0.0835
45024ION     CL76240  19.458  16.630   1.364  0.0315 -0.4159  0.2820
45025ION     CL76241  17.469  17.615   9.387  0.0846 -0.0880  0.1322
45026ION     CL76242  15.632  12.252   9.913  0.4500 -0.2769  0.2838
45027ION     CL76243  13.996   9.956   1.542  0.5365 -0.8025  0.1368
45028ION     CL76244   2.790  15.634   2.354  0.0467 -0.1277  0.1517
45029ION     CL76245  24.688  16.776   9.170 -0.0060 -0.0387  0.1088
45030ION     CL76246  23.993  21.087   2.121 -0.0988 -0.1945 -0.3496
45031ION     CL76247  19.833  16.854  10.371 -0.0657 -0.0917  0.0820
45032ION     CL76248  25.193  14.189   9.954  0.1861  0.3513  0.0832
45033ION     CL76249  24.151  25.876   7.975 -0.0333 -0.2388 -0.1788
45034ION     CL76250  10.742   7.919   1.245 -0.2241  0.0474  0.2701
45035ION     CL76251  11.138   8.952   1.142 -0.2217  0.0885 -0.5096
45036ION     CL76252  15.025  23.169   7.782 -0.0508 -0.3541 -0.4174
45037ION     CL76253   2.484   2.439   2.708  0.2040  0.3497  0.0471
45038ION     CL76254  16.382  16.950   1.017  0.2916  0.0940 -0.0459
45039ION     CL76255  19.738   1.336   2.095  0.0959  0.5200  0.2610
45040ION     CL76256  13.971  13.693   0.179  0.2071 -0.0890 -0.0041
45041ION     CL76257  18.392  27.420  10.297 -0.0390 -0.0378  0.0299
45042ION     CL76258  24.618   6.567   9.655 -0.0609 -0.2429  0.6098
45043ION     CL76259  22.407  21.962   2.148 -0.1244  0.1556 -0.2475
45044ION     CL76260   9.045  21.216   9.275  0.0059  0.0711 -0.5026
45045ION     CL76261  10.284  26.696   0.771 -0.2789  0.3849  0.7524
45046ION     CL76262  19.050  12.681   1.258 -0.1635  0.4604 -0.1256
45047ION     CL76263   9.762  19.804   9.147  0.1131  0.1482 -0.2379
45048ION     CL76264  13.616  12.148   8.426  0.0768 -0.0031 -0.0343
45049ION     CL76265  26.867   2.987   1.567 -0.0485  0.0635  0.1654
45050ION     CL76266  19.171   4.425   9.274  0.2334  0.0076 -0.1749
45051ION     CL76267  22.026   5.150  10.353  0.2432 -0.5900  0.1133
45052ION     CL76268  12.751  24.753   0.728 -0.2851 -0.1165 -0.2095
45053ION     CL76269   7.787   5.905   0.925 -0.1728  0.2518  0.1908
45054ION     CL76270  17.123  18.733   9.574  0.3428 -0.3506 -0.3771
45055ION     CL76271   9.871   3.463   2.115  0.0199 -0.2609 -0.0209
45056ION     CL76272   7.807   5.493   8.531  0.4653  0.0624  0.0640
45057ION     CL76273  26.105   3.605   8.642  0.0945  0.1083  0.2348
45058ION     CL76274  22.093   2.405   0.073  0.0652  0.0814 -0.0080
45059ION     CL76275   9.785   9.066   0.833 -0.3311 -0.0678 -0.1993
45060ION     CL76276   9.585   5.254   0.617 -0.1321 -0.3996  0.1767
45061ION     CL76277  25.920   8.869   2.546  0.5725  0.0274 -0.4387
45062ION     CL76278  22.744   2.180   2.564 -0.0589 -0.1479  0.2482
45063ION     CL76279  18.803   0.141   9.568 -0.2352 -0.4006  0.3839
45064ION     CL76280   2.828  21.808   9.528  0.0069  0.1753  0.1778
45065ION     CL76281  17.011  17.199   8.750  0.0697 -0.1228 -0.2067
45066ION     CL76282   9.607  15.076   2.308  0.5956  0.4530 -0.3299
45067ION     CL76283  24.719  10.430  10.233  0.2785 -0.1690 -0.1040
45068ION     CL76284   0.683  26.663  10.212 -0.2130 -0.0797 -0.2320
45069ION     CL76285  27.207   3.781   1.706  0.2216  0.5648  0.2089
45070ION     CL76286  16.553  16.469   0.351  0.1670 -0.0461  0.2207
45071ION     CL76287  14.396  13.374   2.666  0.5516 -0.1505 -0.0148
45072ION     CL76288   3.016   9.880   1.808 -0.2122  0.0281 -0.3731
45073ION     CL76289  12.989   2.752   2.876 -0.5485 -0.1894 -0.1143
45074ION     CL76290   7.717   6.262  10.289  0.0489  0.0822  0.2018
45075ION     CL76291  20.546   5.786   2.832  0.0334  0.1833 -0.0202
45076ION     CL76292  19.472  14.738   0.931  0.4786  0.1904  0.2944
45077ION     CL76293   0.383  21.645   0.147  0.1382  0.3119  0.2024
45078ION     CL76294  17.689   0.796   9.862  0.1869  0.3079  0.1269
45079ION     CL76295   3.144   5.304   0.831 -0.1085 -0.0499 -0.3414
45080ION     CL76296  21.249  13.851   7.635 -0.2149 -0.2045  0.1098
45081ION     CL76297  18.848   3.649   8.141  0.2293  0.2139  0.2970
45082ION     CL76298  15.360   4.477   9.652  0.1472 -0.1897  0.1380
45083ION     CL76299   6.819  14.750   9.202 -0.3825 -0.0563  0.0753
45084ION     CL76300  21.999  15.475   0.187 -0.0120  0.2640 -0.2013
45085ION     CL76301  26.004   7.085   2.782 -0.1004  0.0987 -0.1132
45086ION     CL76302  12.288  13.026   8.303  0.1174  0.0279  0.1382
45087ION     CL76303  17.761  17.752   2.821  0.1989  0.5397  0.0724
45088ION     CL76304  22.720  26.956   2.405  0.2581  0.1207 -0.5556
45089ION     CL76305  15.741  23.026   8.211  0.0631 -0.0252  0.0783
45090ION     CL76306  19.553  22.933   9.806 -0.1513  0.0537 -0.2585
45091ION     CL76307  16.765  17.388   9.341 -0.5873 -0.4118 -0.1486
45092ION     CL76308  22.888   0.048   2.358  0.2675  0.0978 -0.3432
45093ION     CL76309  21.711  17.522  10.033  0.0657  0.4940  0.0519
45094ION     CL76310  20.190  13.369   1.098  0.6539 -0.0748 -0.1922
45095ION     CL76311  12.300  10.521   0.252 -0.1292 -0.1944 -0.2921
45096ION     CL76312  17.919   8.407   8.917  0.1396 -0.1920 -0.2694
45097ION     CL76313  12.351   5.892   8.229  0.0556 -0.2401  0.1530
45098ION     CL76314  14.262  11.406   0.029  0.3717  0.2980 -0.3361
45099ION     CL76315  21.368  22.491   0.015 -0.2810  0.2213  0.2286
45100ION     CL76316  11.345  12.136   1.029  0.1367 -0.8454  0.1711
45101ION     CL76317  18.299  10.442   1.698  0.0286  0.2042  0.5650
45102ION     CL76318  17.149  21.039   3.399 -0.0571  0.1129  0.2669
45103ION     CL76319   3.964  26.991  10.206 -0.0306  0.0917  0.2151
45104ION     CL76320  11.507  14.569  10.268  0.0585  0.3655  0.3433
45105ION     CL76321  23.349  10.106   8.436  0.2119 -0.0056  0.1798
45106ION     CL76322   7.508  17.457   9.815 -0.4015  0.3446  0.0160
45107ION     CL76323   2.344   2.633  10.233  0.1047  0.1015 -0.2342
45108ION     CL76324  27.394  13.025   8.988 -0.4820  0.2985 -0.3107
45109ION     CL76325  11.171  26.805   9.820  0.4537  0.1496  0.4017
45110ION     CL76326  27.048   0.882   2.570 -0.3976  0.4895  0.3036
45111ION     CL76327   2.102  26.909   9.021 -0.3280 -0.3150 -0.4758
45112ION     CL76328  13.935   4.904   0.294 -0.1025  0.5169  0.0579
45113ION     CL76329  24.839   0.558   1.555 -0.1779  0.2310  0.3423
45114ION     CL76330  18.278   5.896   2.613 -0.2750  0.4280 -0.4896
45115ION     CL76331  19.476  23.249   8.717 -0.2179 -0.0583  0.1644
45116ION     CL76332  19.941  27.002   1.401 -0.3144 -0.3183  0.5206
45117ION     CL76333  21.733   1.340   1.998 -0.2947  0.1451 -0.0302
45118ION     CL76334  17.407   2.501   0.408 -0.3040 -0.2962 -0.2297
45119ION     CL76335  14.109   6.768   8.689  0.2627 -0.1352  0.4096
45120ION     CL76336  19.555  25.801   0.107  0.1400  0.2509 -0.1780
45121ION     CL76337  26.284   5.080   2.461 -0.0390  0.7488  0.0215
45122ION     CL76338   0.369   1.139   0.964  0.4810 -0.0590 -0.0723
45123ION     CL76339  14.298  13.861   0.809  0.0431 -0.3529  0.3497
45124ION     CL76340   6.298   4.989   8.435  0.0710  0.0040 -0.2149
45125ION     CL76341  16.478   4.660   2.142 -0.1176  0.0738  0.1649
45126ION     CL76342   3.607  24.363   3.153 -0.4744  0.0719  0.1450
45127ION     CL76343   2.860   4.860   2.478  0.0993  0.0660 -0.3353
45128ION     CL76344  16.436  26.526   0.673  0.2068  0.0442  0.0224
45129ION     CL76345   2.141  22.624   9.526  0.1035  0.2773 -0.2679
45130ION     CL76346  17.066  12.136   2.129  0.4142  0.2574  0.1290
45131ION     CL76347   8.684  18.149   3.269  0.1970  0.1428  0.0026
45132ION     CL76348  14.795   7.494  10.218  0.0756  0.1462  0.1522
45133ION     CL76349  24.394   9.321   8.666 -0.0007 -0.4361 -0.0853
45134ION     CL76350  13.029  16.181  10.025  0.1620 -0.0064 -0.0331
45135ION     CL76351  25.657  11.420  10.307 -0.4066  0.1991 -0.2266
45136ION     CL76352  10.954   2.510   2.227 -0.3273  0.3837 -0.4651
45137ION     CL76353  12.533  23.759   2.869  0.1945  0.0003 -0.3490
45138ION     CL76354  23.971   0.674   1.533 -0.1433  0.4275  0.0601
45139ION     CL76355   7.752  14.783   9.945 -0.3854 -0.0657  0.1869
45140ION     CL76356  21.496  20.515   2.327  0.2136  0.3315  0.2551
45141ION     CL76357  24.500   9.918   9.345 -0.0223 -0.3869 -0.0571
45142ION     CL76358  18.098  25.114   8.677  0.2124  0.1146  0.0925
45143ION     CL76359  10.511  15.850   9.466  0.0373 -0.3382 -0.2850
45144ION     CL76360  19.931  11.440   8.427 -0.0248 -0.4568  0.0230
45145ION     CL76361  18.126  14.631  10.252 -0.0567 -0.0194 -0.3110
45146ION     CL76362  19.659  27.484   0.390  0.1680  0.2707 -0.3964
45147ION     CL76363  23.161  23.272   2.691  0.0975 -0.1020  0.2630
45148ION     CL76364   0.245   2.416   2.487  0.6146  0.3135  0.0938
45149ION     CL76365   0.487  11.930   9.970 -0.3244  0.0338 -0.0908
45150ION     CL76366  18.063  22.757   0.346  0.5600  0.7087 -0.0147
45151ION     CL76367  12.105  15.352   9.757  0.3675 -0.2546  0.2372
45152ION     CL76368  14.849  11.515   8.174 -0.1019 -0.0960  0.1983
45153ION     CL76369  17.446   9.500   9.676 -0.2483  0.1049 -0.0839
45154ION     CL76370   3.460  24.711   0.056  0.4536  0.1518 -0.0099
45155ION     CL76371   8.246  17.067   8.460 -0.2267 -0.1861 -0.1974
45156ION     CL76372  17.824  16.232   8.895 -0.6268 -0.3660  0.0953
45157ION     CL76373   0.913  19.407   9.687 -0.1319 -0.4895  0.0750
45158ION     CL76374   7.919   3.549   0.036  0.0714 -0.4136 -0.1653
45159ION     CL76375  22.188  22.238   1.549 -0.3502 -0.1471 -0.2678
45160ION     CL76376  11.995  14.961   2.650 -0.0047 -0.1105 -0.2263
45161ION     CL76377   4.362  18.626  10.017 -0.0803 -0.0961 -0.0940
45162ION     CL76378  18.663  11.385   8.076  0.1984  0.5992  0.3443
45163ION     CL76379  26.939  22.016   0.221 -0.4791 -0.2240  0.1381
45164ION     CL76380  23.135  24.044   9.544 -0.0695 -0.0169 -0.0212
45165ION     CL76381  25.242  13.262   1.811  0.1561  0.1381  0.0479
45166ION     CL76382   9.647   3.578   8.116 -0.2999  0.3915  0.0389
45167ION     CL76383  10.151   0.140   1.533  0.0638  0.5229 -0.3717
45168ION     CL76384  26.158  14.727   2.578  0.0154 -0.2657  0.1902
45169ION     CL76385  21.821  10.862   0.897 -0.0950 -0.2256 -0.1530
45170ION     CL76386   6.189  19.777   8.896 -0.3379  0.0730 -0.3081
45171ION     CL76387  16.271  11.813   1.901  0.6793 -0.5929  0.1894
45172ION     CL76388   5.228  12.219   1.472  0.0878 -0.2551 -0.0284
45173ION     CL76389  11.209   7.069   0.571  0.8164 -0.4704  0.0340
45174ION     CL76390   5.273  15.303   9.818 -0.3199  0.1614 -0.3376
45175ION     CL76391  21.080  10.367  10.447  0.2195 -0.4924  0.0855
45176ION     CL76392   1.219  15.203   0.346  0.4332  0.0304 -0.2425
45177ION     CL76393  10.863  22.752   8.587  0.0150 -0.1840 -0.3859
45178ION     CL76394  17.598   0.314   9.173 -0.1404  0.1419  0.1442
45179ION     CL76395   5.497   3.515   0.967 -0.1410  0.2674  0.3270
45180ION     CL76396   2.216   0.145   8.394 -0.4378  0.8645  0.0146
45181ION     CL76397  16.788  14.041   1.239 -0.3200  0.4272  0.5538
45182ION     CL76398  15.789   6.921   1.892 -0.0858 -0.1035  0.6473
45183ION     CL76399   3.240  13.884  10.218 -0.0473  0.2517  0.4570
45184ION     CL76400  21.414  23.940   1.882 -0.3981 -0.4329 -0.5585
45185ION     CL76401   9.057  19.309   0.889  0.2734  0.2645  0.1176
45186ION     CL76402  17.022  10.569   1.032  0.0606 -0.0810 -0.3630
45187ION     CL76403   3.234   0.982   0.440 -0.4768  0.2681  0.0803
45188ION     CL76404  25.051  19.034  10.512  0.0979 -0.4316  0.3498
45189ION     CL76405  18.204  16.564  10.404 -0.1159 -0.5754  0.1422
  27.62157  27.62157  10.54420
