; Topology file generated by 
; CHARMM General Force Field (CGenFF) program version 4.0
; For use with CGenFF topology and parameter files version 5.0
; Generated on 2026-09-26 09:34:44 (user = unknown)
;
; Include forcefield parameters
#include "./charmm36.ff/forcefield.itp"
;
; Include ligand specific parameters
# include "./charmm36.ff/sem_ffbonded.itp"
;
[ moleculetype ]
; Name            nrexcl
Other               3
;
[ atoms ]
;   nr       type  resnr residue  atom   cgnr     charge       mass  typeB    chargeB      massB
; residue   1 sem rtp sem  q -2.0
     1      CG331      1    sem     C1      1      -0.27     12.011   ; qtot -0.27
     2      CG2O1      1    sem     C2      2      0.506     12.011   ; qtot 0.506
     3      OG2D1      1    sem     O3      3     -0.509    15.9994   ; qtot -0.509
     4      NG2S1      1    sem     N4      4     -0.415     14.007   ; qtot -0.415
     5      CG311      1    sem     C5      5      0.061     12.011   ; qtot 0.061
     6      CG321      1    sem     C6      6     -0.175     12.011   ; qtot -0.175
     7      CG321      1    sem     C7      7      -0.21     12.011   ; qtot -0.21
     8      CG321      1    sem     C8      8     -0.169     12.011   ; qtot -0.169
     9      CG321      1    sem     C9      9     -0.004     12.011   ; qtot -0.004
    10      NG2S1      1    sem    N10     10     -0.487     14.007   ; qtot -0.487
    11      CG2O1      1    sem    C11     11      0.523     12.011   ; qtot 0.523
    12      OG2D1      1    sem    O12     12     -0.457    15.9994   ; qtot -0.457
    13      CG321      1    sem    C13     13      0.155     12.011   ; qtot 0.155
    14      OG301      1    sem    O14     14      -0.58    15.9994   ; qtot -0.58
    15      CG321      1    sem    C15     15 -0.00700002     12.011   ; qtot -0.007
    16      CG321      1    sem    C16     16     -0.006     12.011   ; qtot -0.006
    17      OG301      1    sem    O17     17     -0.348    15.9994   ; qtot -0.348
    18      CG321      1    sem    C18     18 0.00499998     12.011   ; qtot 0.005
    19      CG321      1    sem    C19     19 -0.00999999     12.011   ; qtot -0.01
    20      NG2S1      1    sem    N20     20     -0.492     14.007   ; qtot -0.492
    21      CG2O1      1    sem    C21     21      0.523     12.011   ; qtot 0.523
    22      OG2D1      1    sem    O22     22     -0.457    15.9994   ; qtot -0.457
    23      CG321      1    sem    C23     23      0.155     12.011   ; qtot 0.155
    24      OG301      1    sem    O24     24      -0.58    15.9994   ; qtot -0.58
    25      CG321      1    sem    C25     25 -0.00700002     12.011   ; qtot -0.007
    26      CG321      1    sem    C26     26     -0.006     12.011   ; qtot -0.006
    27      OG301      1    sem    O27     27     -0.348    15.9994   ; qtot -0.348
    28      CG321      1    sem    C28     28 0.00499998     12.011   ; qtot 0.005
    29      CG321      1    sem    C29     29 -0.00999999     12.011   ; qtot -0.01
    30      NG2S1      1    sem    N30     30     -0.477     14.007   ; qtot -0.477
    31      CG2O1      1    sem    C31     31      0.483     12.011   ; qtot 0.483
    32      OG2D1      1    sem    O32     32     -0.521    15.9994   ; qtot -0.521
    33      CG321      1    sem    C33     33     -0.194     12.011   ; qtot -0.194
    34      CG321      1    sem    C34     34     -0.139     12.011   ; qtot -0.139
    35      CG311      1    sem    C35     35     -0.172     12.011   ; qtot -0.172
    36      NG2S1      1    sem    N36     36     -0.476     14.007   ; qtot -0.476
    37      CG2O1      1    sem    C37     37      0.489     12.011   ; qtot 0.489
    38      OG2D1      1    sem    O38     38     -0.517    15.9994   ; qtot -0.517
    39      CG321      1    sem    C39     39     -0.204     12.011   ; qtot -0.204
    40      CG321      1    sem    C40     40     -0.166     12.011   ; qtot -0.166
    41      CG321      1    sem    C41     41     -0.144     12.011   ; qtot -0.144
    42      CG321      1    sem    C42     42      -0.18     12.011   ; qtot -0.18
    43      CG321      1    sem    C43     43      -0.18     12.011   ; qtot -0.18
    44      CG321      1    sem    C44     44      -0.18     12.011   ; qtot -0.18
    45      CG321      1    sem    C45     45      -0.18     12.011   ; qtot -0.18
    46      CG321      1    sem    C46     46      -0.18     12.011   ; qtot -0.18
    47      CG321      1    sem    C47     47      -0.18     12.011   ; qtot -0.18
    48      CG321      1    sem    C48     48      -0.18     12.011   ; qtot -0.18
    49      CG321      1    sem    C49     49      -0.18     12.011   ; qtot -0.18
    50      CG321      1    sem    C50     50      -0.18     12.011   ; qtot -0.18
    51      CG321      1    sem    C51     51      -0.18     12.011   ; qtot -0.18
    52      CG321      1    sem    C52     52      -0.18     12.011   ; qtot -0.18
    53      CG321      1    sem    C53     53      -0.18     12.011   ; qtot -0.18
    54      CG321      1    sem    C54     54     -0.282     12.011   ; qtot -0.282
    55      CG2O3      1    sem    C55     55      0.622     12.011   ; qtot 0.622
    56      OG2D2      1    sem    O56     56      -0.76    15.9994   ; qtot -0.76
    57      OG2D2      1    sem    O57     57      -0.76    15.9994   ; qtot -0.76
    58      CG2O3      1    sem    C58     58      0.646     12.011   ; qtot 0.646
    59      OG2D2      1    sem    O59     59     -0.761    15.9994   ; qtot -0.761
    60      OG2D2      1    sem    O60     60     -0.761    15.9994   ; qtot -0.761
    61      CG2O1      1    sem    C61     61      0.498     12.011   ; qtot 0.498
    62      OG2D1      1    sem    O62     62     -0.514    15.9994   ; qtot -0.514
    63      NG2S1      1    sem    N63     63     -0.485     14.007   ; qtot -0.485
    64      CG331      1    sem    C64     64     -0.109     12.011   ; qtot -0.109
    65       HGA3      1    sem    H65     65       0.09      1.008   ; qtot 0.09
    66       HGA3      1    sem    H66     66       0.09      1.008   ; qtot 0.09
    67       HGA3      1    sem    H67     67       0.09      1.008   ; qtot 0.09
    68       HGP1      1    sem    H68     68      0.308      1.008   ; qtot 0.308
    69       HGA1      1    sem    H69     69       0.09      1.008   ; qtot 0.09
    70       HGA2      1    sem    H70     70       0.09      1.008   ; qtot 0.09
    71       HGA2      1    sem    H71     71       0.09      1.008   ; qtot 0.09
    72       HGA2      1    sem    H72     72       0.09      1.008   ; qtot 0.09
    73       HGA2      1    sem    H73     73       0.09      1.008   ; qtot 0.09
    74       HGA2      1    sem    H74     74       0.09      1.008   ; qtot 0.09
    75       HGA2      1    sem    H75     75       0.09      1.008   ; qtot 0.09
    76       HGA2      1    sem    H76     76       0.09      1.008   ; qtot 0.09
    77       HGA2      1    sem    H77     77       0.09      1.008   ; qtot 0.09
    78       HGP1      1    sem    H78     78      0.317      1.008   ; qtot 0.317
    79       HGA2      1    sem    H79     79       0.09      1.008   ; qtot 0.09
    80       HGA2      1    sem    H80     80       0.09      1.008   ; qtot 0.09
    81       HGA2      1    sem    H81     81       0.09      1.008   ; qtot 0.09
    82       HGA2      1    sem    H82     82       0.09      1.008   ; qtot 0.09
    83       HGA2      1    sem    H83     83       0.09      1.008   ; qtot 0.09
    84       HGA2      1    sem    H84     84       0.09      1.008   ; qtot 0.09
    85       HGA2      1    sem    H85     85       0.09      1.008   ; qtot 0.09
    86       HGA2      1    sem    H86     86       0.09      1.008   ; qtot 0.09
    87       HGA2      1    sem    H87     87       0.09      1.008   ; qtot 0.09
    88       HGA2      1    sem    H88     88       0.09      1.008   ; qtot 0.09
    89       HGP1      1    sem    H89     89      0.317      1.008   ; qtot 0.317
    90       HGA2      1    sem    H90     90       0.09      1.008   ; qtot 0.09
    91       HGA2      1    sem    H91     91       0.09      1.008   ; qtot 0.09
    92       HGA2      1    sem    H92     92       0.09      1.008   ; qtot 0.09
    93       HGA2      1    sem    H93     93       0.09      1.008   ; qtot 0.09
    94       HGA2      1    sem    H94     94       0.09      1.008   ; qtot 0.09
    95       HGA2      1    sem    H95     95       0.09      1.008   ; qtot 0.09
    96       HGA2      1    sem    H96     96       0.09      1.008   ; qtot 0.09
    97       HGA2      1    sem    H97     97       0.09      1.008   ; qtot 0.09
    98       HGA2      1    sem    H98     98       0.09      1.008   ; qtot 0.09
    99       HGA2      1    sem    H99     99       0.09      1.008   ; qtot 0.09
   100       HGP1      1    sem   H100    100      0.317      1.008   ; qtot 0.317
   101       HGA2      1    sem   H101    101       0.09      1.008   ; qtot 0.09
   102       HGA2      1    sem   H102    102       0.09      1.008   ; qtot 0.09
   103       HGA2      1    sem   H103    103       0.09      1.008   ; qtot 0.09
   104       HGA2      1    sem   H104    104       0.09      1.008   ; qtot 0.09
   105       HGA1      1    sem   H105    105       0.09      1.008   ; qtot 0.09
   106       HGP1      1    sem   H106    106      0.426      1.008   ; qtot 0.426
   107       HGA2      1    sem   H107    107       0.09      1.008   ; qtot 0.09
   108       HGA2      1    sem   H108    108       0.09      1.008   ; qtot 0.09
   109       HGA2      1    sem   H109    109       0.09      1.008   ; qtot 0.09
   110       HGA2      1    sem   H110    110       0.09      1.008   ; qtot 0.09
   111       HGA2      1    sem   H111    111       0.09      1.008   ; qtot 0.09
   112       HGA2      1    sem   H112    112       0.09      1.008   ; qtot 0.09
   113       HGA2      1    sem   H113    113       0.09      1.008   ; qtot 0.09
   114       HGA2      1    sem   H114    114       0.09      1.008   ; qtot 0.09
   115       HGA2      1    sem   H115    115       0.09      1.008   ; qtot 0.09
   116       HGA2      1    sem   H116    116       0.09      1.008   ; qtot 0.09
   117       HGA2      1    sem   H117    117       0.09      1.008   ; qtot 0.09
   118       HGA2      1    sem   H118    118       0.09      1.008   ; qtot 0.09
   119       HGA2      1    sem   H119    119       0.09      1.008   ; qtot 0.09
   120       HGA2      1    sem   H120    120       0.09      1.008   ; qtot 0.09
   121       HGA2      1    sem   H121    121       0.09      1.008   ; qtot 0.09
   122       HGA2      1    sem   H122    122       0.09      1.008   ; qtot 0.09
   123       HGA2      1    sem   H123    123       0.09      1.008   ; qtot 0.09
   124       HGA2      1    sem   H124    124       0.09      1.008   ; qtot 0.09
   125       HGA2      1    sem   H125    125       0.09      1.008   ; qtot 0.09
   126       HGA2      1    sem   H126    126       0.09      1.008   ; qtot 0.09
   127       HGA2      1    sem   H127    127       0.09      1.008   ; qtot 0.09
   128       HGA2      1    sem   H128    128       0.09      1.008   ; qtot 0.09
   129       HGA2      1    sem   H129    129       0.09      1.008   ; qtot 0.09
   130       HGA2      1    sem   H130    130       0.09      1.008   ; qtot 0.09
   131       HGA2      1    sem   H131    131       0.09      1.008   ; qtot 0.09
   132       HGA2      1    sem   H132    132       0.09      1.008   ; qtot 0.09
   133       HGA2      1    sem   H133    133       0.09      1.008   ; qtot 0.09
   134       HGA2      1    sem   H134    134       0.09      1.008   ; qtot 0.09
   135       HGA2      1    sem   H135    135       0.09      1.008   ; qtot 0.09
   136       HGA2      1    sem   H136    136       0.09      1.008   ; qtot 0.09
   137       HGA2      1    sem   H137    137       0.09      1.008   ; qtot 0.09
   138       HGA2      1    sem   H138    138       0.09      1.008   ; qtot 0.09
   139       HGP1      1    sem   H139    139      0.313      1.008   ; qtot 0.313
   140       HGA3      1    sem   H140    140       0.09      1.008   ; qtot 0.09
   141       HGA3      1    sem   H141    141       0.09      1.008   ; qtot 0.09
   142       HGA3      1    sem   H142    142       0.09      1.008   ; qtot 0.09

[ bonds ]
;  ai    aj funct            c0            c1            c2            c3
    1     2     1
    2     3     1
    2     4     1
    4     5     1
    5     6     1
    6     7     1
    7     8     1
    8     9     1
    9    10     1
   10    11     1
   11    12     1
   11    13     1
   13    14     1
   14    15     1
   15    16     1
   16    17     1
   17    18     1
   18    19     1
   19    20     1
   20    21     1
   21    22     1
   21    23     1
   23    24     1
   24    25     1
   25    26     1
   26    27     1
   27    28     1
   28    29     1
   29    30     1
   30    31     1
   31    32     1
   31    33     1
   33    34     1
   34    35     1
   35    36     1
   36    37     1
   37    38     1
   37    39     1
   39    40     1
   40    41     1
   41    42     1
   42    43     1
   43    44     1
   44    45     1
   45    46     1
   46    47     1
   47    48     1
   48    49     1
   49    50     1
   50    51     1
   51    52     1
   52    53     1
   53    54     1
   54    55     1
   55    56     1
   55    57     1
   35    58     1
   58    59     1
   58    60     1
    5    61     1
   61    62     1
   61    63     1
   63    64     1
    1    65     1
    1    66     1
    1    67     1
    4    68     1
    5    69     1
    6    70     1
    6    71     1
    7    72     1
    7    73     1
    8    74     1
    8    75     1
    9    76     1
    9    77     1
   10    78     1
   13    79     1
   13    80     1
   15    81     1
   15    82     1
   16    83     1
   16    84     1
   18    85     1
   18    86     1
   19    87     1
   19    88     1
   20    89     1
   23    90     1
   23    91     1
   25    92     1
   25    93     1
   26    94     1
   26    95     1
   28    96     1
   28    97     1
   29    98     1
   29    99     1
   30   100     1
   33   101     1
   33   102     1
   34   103     1
   34   104     1
   35   105     1
   36   106     1
   39   107     1
   39   108     1
   40   109     1
   40   110     1
   41   111     1
   41   112     1
   42   113     1
   42   114     1
   43   115     1
   43   116     1
   44   117     1
   44   118     1
   45   119     1
   45   120     1
   46   121     1
   46   122     1
   47   123     1
   47   124     1
   48   125     1
   48   126     1
   49   127     1
   49   128     1
   50   129     1
   50   130     1
   51   131     1
   51   132     1
   52   133     1
   52   134     1
   53   135     1
   53   136     1
   54   137     1
   54   138     1
   63   139     1
   64   140     1
   64   141     1
   64   142     1

[ pairs ]
;  ai    aj funct            c0            c1            c2            c3
    1     5     1
    1    68     1
    2     6     1
    2    61     1
    2    69     1
    3     5     1
    3    65     1
    3    66     1
    3    67     1
    3    68     1
    4     7     1
    4    62     1
    4    63     1
    4    65     1
    4    66     1
    4    67     1
    4    70     1
    4    71     1
    5     8     1
    5    64     1
    5    72     1
    5    73     1
    5   139     1
    6     9     1
    6    62     1
    6    63     1
    6    68     1
    6    74     1
    6    75     1
    7    10     1
    7    61     1
    7    69     1
    7    76     1
    7    77     1
    8    11     1
    8    70     1
    8    71     1
    8    78     1
    9    12     1
    9    13     1
    9    72     1
    9    73     1
   10    14     1
   10    74     1
   10    75     1
   10    79     1
   10    80     1
   11    15     1
   11    76     1
   11    77     1
   12    14     1
   12    78     1
   12    79     1
   12    80     1
   13    16     1
   13    78     1
   13    81     1
   13    82     1
   14    17     1
   14    83     1
   14    84     1
   15    18     1
   15    79     1
   15    80     1
   16    19     1
   16    85     1
   16    86     1
   17    20     1
   17    81     1
   17    82     1
   17    87     1
   17    88     1
   18    21     1
   18    83     1
   18    84     1
   18    89     1
   19    22     1
   19    23     1
   20    24     1
   20    85     1
   20    86     1
   20    90     1
   20    91     1
   21    25     1
   21    87     1
   21    88     1
   22    24     1
   22    89     1
   22    90     1
   22    91     1
   23    26     1
   23    89     1
   23    92     1
   23    93     1
   24    27     1
   24    94     1
   24    95     1
   25    28     1
   25    90     1
   25    91     1
   26    29     1
   26    96     1
   26    97     1
   27    30     1
   27    92     1
   27    93     1
   27    98     1
   27    99     1
   28    31     1
   28    94     1
   28    95     1
   28   100     1
   29    32     1
   29    33     1
   30    34     1
   30    96     1
   30    97     1
   30   101     1
   30   102     1
   31    35     1
   31    98     1
   31    99     1
   31   103     1
   31   104     1
   32    34     1
   32   100     1
   32   101     1
   32   102     1
   33    36     1
   33    58     1
   33   100     1
   33   105     1
   34    37     1
   34    59     1
   34    60     1
   34   106     1
   35    38     1
   35    39     1
   35   101     1
   35   102     1
   36    40     1
   36    59     1
   36    60     1
   36   103     1
   36   104     1
   36   107     1
   36   108     1
   37    41     1
   37    58     1
   37   105     1
   37   109     1
   37   110     1
   38    40     1
   38   106     1
   38   107     1
   38   108     1
   39    42     1
   39   106     1
   39   111     1
   39   112     1
   40    43     1
   40   113     1
   40   114     1
   41    44     1
   41   107     1
   41   108     1
   41   115     1
   41   116     1
   42    45     1
   42   109     1
   42   110     1
   42   117     1
   42   118     1
   43    46     1
   43   111     1
   43   112     1
   43   119     1
   43   120     1
   44    47     1
   44   113     1
   44   114     1
   44   121     1
   44   122     1
   45    48     1
   45   115     1
   45   116     1
   45   123     1
   45   124     1
   46    49     1
   46   117     1
   46   118     1
   46   125     1
   46   126     1
   47    50     1
   47   119     1
   47   120     1
   47   127     1
   47   128     1
   48    51     1
   48   121     1
   48   122     1
   48   129     1
   48   130     1
   49    52     1
   49   123     1
   49   124     1
   49   131     1
   49   132     1
   50    53     1
   50   125     1
   50   126     1
   50   133     1
   50   134     1
   51    54     1
   51   127     1
   51   128     1
   51   135     1
   51   136     1
   52    55     1
   52   129     1
   52   130     1
   52   137     1
   52   138     1
   53    56     1
   53    57     1
   53   131     1
   53   132     1
   54   133     1
   54   134     1
   55   135     1
   55   136     1
   56   137     1
   56   138     1
   57   137     1
   57   138     1
   58   103     1
   58   104     1
   58   106     1
   59   105     1
   60   105     1
   61    68     1
   61    70     1
   61    71     1
   61   140     1
   61   141     1
   61   142     1
   62    64     1
   62    69     1
   62   139     1
   63    69     1
   68    69     1
   69    70     1
   69    71     1
   70    72     1
   70    73     1
   71    72     1
   71    73     1
   72    74     1
   72    75     1
   73    74     1
   73    75     1
   74    76     1
   74    77     1
   75    76     1
   75    77     1
   76    78     1
   77    78     1
   81    83     1
   81    84     1
   82    83     1
   82    84     1
   85    87     1
   85    88     1
   86    87     1
   86    88     1
   87    89     1
   88    89     1
   92    94     1
   92    95     1
   93    94     1
   93    95     1
   96    98     1
   96    99     1
   97    98     1
   97    99     1
   98   100     1
   99   100     1
  101   103     1
  101   104     1
  102   103     1
  102   104     1
  103   105     1
  104   105     1
  105   106     1
  107   109     1
  107   110     1
  108   109     1
  108   110     1
  109   111     1
  109   112     1
  110   111     1
  110   112     1
  111   113     1
  111   114     1
  112   113     1
  112   114     1
  113   115     1
  113   116     1
  114   115     1
  114   116     1
  115   117     1
  115   118     1
  116   117     1
  116   118     1
  117   119     1
  117   120     1
  118   119     1
  118   120     1
  119   121     1
  119   122     1
  120   121     1
  120   122     1
  121   123     1
  121   124     1
  122   123     1
  122   124     1
  123   125     1
  123   126     1
  124   125     1
  124   126     1
  125   127     1
  125   128     1
  126   127     1
  126   128     1
  127   129     1
  127   130     1
  128   129     1
  128   130     1
  129   131     1
  129   132     1
  130   131     1
  130   132     1
  131   133     1
  131   134     1
  132   133     1
  132   134     1
  133   135     1
  133   136     1
  134   135     1
  134   136     1
  135   137     1
  135   138     1
  136   137     1
  136   138     1
  139   140     1
  139   141     1
  139   142     1

[ angles ]
;  ai    aj    ak funct            c0            c1            c2            c3
    2     1    65     5
    2     1    66     5
    2     1    67     5
   65     1    66     5
   65     1    67     5
   66     1    67     5
    1     2     3     5
    1     2     4     5
    3     2     4     5
    2     4     5     5
    2     4    68     5
    5     4    68     5
    4     5     6     5
    4     5    61     5
    4     5    69     5
    6     5    61     5
    6     5    69     5
   61     5    69     5
    5     6     7     5
    5     6    70     5
    5     6    71     5
    7     6    70     5
    7     6    71     5
   70     6    71     5
    6     7     8     5
    6     7    72     5
    6     7    73     5
    8     7    72     5
    8     7    73     5
   72     7    73     5
    7     8     9     5
    7     8    74     5
    7     8    75     5
    9     8    74     5
    9     8    75     5
   74     8    75     5
    8     9    10     5
    8     9    76     5
    8     9    77     5
   10     9    76     5
   10     9    77     5
   76     9    77     5
    9    10    11     5
    9    10    78     5
   11    10    78     5
   10    11    12     5
   10    11    13     5
   12    11    13     5
   11    13    14     5
   11    13    79     5
   11    13    80     5
   14    13    79     5
   14    13    80     5
   79    13    80     5
   13    14    15     5
   14    15    16     5
   14    15    81     5
   14    15    82     5
   16    15    81     5
   16    15    82     5
   81    15    82     5
   15    16    17     5
   15    16    83     5
   15    16    84     5
   17    16    83     5
   17    16    84     5
   83    16    84     5
   16    17    18     5
   17    18    19     5
   17    18    85     5
   17    18    86     5
   19    18    85     5
   19    18    86     5
   85    18    86     5
   18    19    20     5
   18    19    87     5
   18    19    88     5
   20    19    87     5
   20    19    88     5
   87    19    88     5
   19    20    21     5
   19    20    89     5
   21    20    89     5
   20    21    22     5
   20    21    23     5
   22    21    23     5
   21    23    24     5
   21    23    90     5
   21    23    91     5
   24    23    90     5
   24    23    91     5
   90    23    91     5
   23    24    25     5
   24    25    26     5
   24    25    92     5
   24    25    93     5
   26    25    92     5
   26    25    93     5
   92    25    93     5
   25    26    27     5
   25    26    94     5
   25    26    95     5
   27    26    94     5
   27    26    95     5
   94    26    95     5
   26    27    28     5
   27    28    29     5
   27    28    96     5
   27    28    97     5
   29    28    96     5
   29    28    97     5
   96    28    97     5
   28    29    30     5
   28    29    98     5
   28    29    99     5
   30    29    98     5
   30    29    99     5
   98    29    99     5
   29    30    31     5
   29    30   100     5
   31    30   100     5
   30    31    32     5
   30    31    33     5
   32    31    33     5
   31    33    34     5
   31    33   101     5
   31    33   102     5
   34    33   101     5
   34    33   102     5
  101    33   102     5
   33    34    35     5
   33    34   103     5
   33    34   104     5
   35    34   103     5
   35    34   104     5
  103    34   104     5
   34    35    36     5
   34    35    58     5
   34    35   105     5
   36    35    58     5
   36    35   105     5
   58    35   105     5
   35    36    37     5
   35    36   106     5
   37    36   106     5
   36    37    38     5
   36    37    39     5
   38    37    39     5
   37    39    40     5
   37    39   107     5
   37    39   108     5
   40    39   107     5
   40    39   108     5
  107    39   108     5
   39    40    41     5
   39    40   109     5
   39    40   110     5
   41    40   109     5
   41    40   110     5
  109    40   110     5
   40    41    42     5
   40    41   111     5
   40    41   112     5
   42    41   111     5
   42    41   112     5
  111    41   112     5
   41    42    43     5
   41    42   113     5
   41    42   114     5
   43    42   113     5
   43    42   114     5
  113    42   114     5
   42    43    44     5
   42    43   115     5
   42    43   116     5
   44    43   115     5
   44    43   116     5
  115    43   116     5
   43    44    45     5
   43    44   117     5
   43    44   118     5
   45    44   117     5
   45    44   118     5
  117    44   118     5
   44    45    46     5
   44    45   119     5
   44    45   120     5
   46    45   119     5
   46    45   120     5
  119    45   120     5
   45    46    47     5
   45    46   121     5
   45    46   122     5
   47    46   121     5
   47    46   122     5
  121    46   122     5
   46    47    48     5
   46    47   123     5
   46    47   124     5
   48    47   123     5
   48    47   124     5
  123    47   124     5
   47    48    49     5
   47    48   125     5
   47    48   126     5
   49    48   125     5
   49    48   126     5
  125    48   126     5
   48    49    50     5
   48    49   127     5
   48    49   128     5
   50    49   127     5
   50    49   128     5
  127    49   128     5
   49    50    51     5
   49    50   129     5
   49    50   130     5
   51    50   129     5
   51    50   130     5
  129    50   130     5
   50    51    52     5
   50    51   131     5
   50    51   132     5
   52    51   131     5
   52    51   132     5
  131    51   132     5
   51    52    53     5
   51    52   133     5
   51    52   134     5
   53    52   133     5
   53    52   134     5
  133    52   134     5
   52    53    54     5
   52    53   135     5
   52    53   136     5
   54    53   135     5
   54    53   136     5
  135    53   136     5
   53    54    55     5
   53    54   137     5
   53    54   138     5
   55    54   137     5
   55    54   138     5
  137    54   138     5
   54    55    56     5
   54    55    57     5
   56    55    57     5
   35    58    59     5
   35    58    60     5
   59    58    60     5
    5    61    62     5
    5    61    63     5
   62    61    63     5
   61    63    64     5
   61    63   139     5
   64    63   139     5
   63    64   140     5
   63    64   141     5
   63    64   142     5
  140    64   141     5
  140    64   142     5
  141    64   142     5

[ dihedrals ]
;  ai    aj    ak    al funct            c0            c1            c2            c3            c4            c5
   65     1     2     3     9
   65     1     2     4     9
   66     1     2     3     9
   66     1     2     4     9
   67     1     2     3     9
   67     1     2     4     9
    1     2     4     5     9
    1     2     4    68     9
    3     2     4     5     9
    3     2     4    68     9
    2     4     5     6     9
    2     4     5    61     9
    2     4     5    69     9
   68     4     5     6     9
   68     4     5    61     9
   68     4     5    69     9
    4     5     6     7     9
    4     5     6    70     9
    4     5     6    71     9
   61     5     6     7     9
   61     5     6    70     9
   61     5     6    71     9
   69     5     6     7     9
   69     5     6    70     9
   69     5     6    71     9
    5     6     7     8     9
    5     6     7    72     9
    5     6     7    73     9
   70     6     7     8     9
   70     6     7    72     9
   70     6     7    73     9
   71     6     7     8     9
   71     6     7    72     9
   71     6     7    73     9
    6     7     8     9     9
    6     7     8    74     9
    6     7     8    75     9
   72     7     8     9     9
   72     7     8    74     9
   72     7     8    75     9
   73     7     8     9     9
   73     7     8    74     9
   73     7     8    75     9
    7     8     9    10     9
    7     8     9    76     9
    7     8     9    77     9
   74     8     9    10     9
   74     8     9    76     9
   74     8     9    77     9
   75     8     9    10     9
   75     8     9    76     9
   75     8     9    77     9
    8     9    10    11     9
    8     9    10    78     9
   76     9    10    11     9
   76     9    10    78     9
   77     9    10    11     9
   77     9    10    78     9
    9    10    11    12     9
    9    10    11    13     9
   78    10    11    12     9
   78    10    11    13     9
   10    11    13    14     9
   10    11    13    79     9
   10    11    13    80     9
   12    11    13    14     9
   12    11    13    79     9
   12    11    13    80     9
   11    13    14    15     9
   79    13    14    15     9
   80    13    14    15     9
   13    14    15    16     9
   13    14    15    81     9
   13    14    15    82     9
   14    15    16    17     9
   14    15    16    83     9
   14    15    16    84     9
   81    15    16    17     9
   81    15    16    83     9
   81    15    16    84     9
   82    15    16    17     9
   82    15    16    83     9
   82    15    16    84     9
   15    16    17    18     9
   83    16    17    18     9
   84    16    17    18     9
   16    17    18    19     9
   16    17    18    85     9
   16    17    18    86     9
   17    18    19    20     9
   17    18    19    87     9
   17    18    19    88     9
   85    18    19    20     9
   85    18    19    87     9
   85    18    19    88     9
   86    18    19    20     9
   86    18    19    87     9
   86    18    19    88     9
   18    19    20    21     9
   18    19    20    89     9
   87    19    20    21     9
   87    19    20    89     9
   88    19    20    21     9
   88    19    20    89     9
   19    20    21    22     9
   19    20    21    23     9
   89    20    21    22     9
   89    20    21    23     9
   20    21    23    24     9
   20    21    23    90     9
   20    21    23    91     9
   22    21    23    24     9
   22    21    23    90     9
   22    21    23    91     9
   21    23    24    25     9
   90    23    24    25     9
   91    23    24    25     9
   23    24    25    26     9
   23    24    25    92     9
   23    24    25    93     9
   24    25    26    27     9
   24    25    26    94     9
   24    25    26    95     9
   92    25    26    27     9
   92    25    26    94     9
   92    25    26    95     9
   93    25    26    27     9
   93    25    26    94     9
   93    25    26    95     9
   25    26    27    28     9
   94    26    27    28     9
   95    26    27    28     9
   26    27    28    29     9
   26    27    28    96     9
   26    27    28    97     9
   27    28    29    30     9
   27    28    29    98     9
   27    28    29    99     9
   96    28    29    30     9
   96    28    29    98     9
   96    28    29    99     9
   97    28    29    30     9
   97    28    29    98     9
   97    28    29    99     9
   28    29    30    31     9
   28    29    30   100     9
   98    29    30    31     9
   98    29    30   100     9
   99    29    30    31     9
   99    29    30   100     9
   29    30    31    32     9
   29    30    31    33     9
  100    30    31    32     9
  100    30    31    33     9
   30    31    33    34     9
   30    31    33   101     9
   30    31    33   102     9
   32    31    33    34     9
   32    31    33   101     9
   32    31    33   102     9
   31    33    34    35     9
   31    33    34   103     9
   31    33    34   104     9
  101    33    34    35     9
  101    33    34   103     9
  101    33    34   104     9
  102    33    34    35     9
  102    33    34   103     9
  102    33    34   104     9
   33    34    35    36     9
   33    34    35    58     9
   33    34    35   105     9
  103    34    35    36     9
  103    34    35    58     9
  103    34    35   105     9
  104    34    35    36     9
  104    34    35    58     9
  104    34    35   105     9
   34    35    36    37     9
   34    35    36   106     9
   58    35    36    37     9
   58    35    36   106     9
  105    35    36    37     9
  105    35    36   106     9
   35    36    37    38     9
   35    36    37    39     9
  106    36    37    38     9
  106    36    37    39     9
   36    37    39    40     9
   36    37    39   107     9
   36    37    39   108     9
   38    37    39    40     9
   38    37    39   107     9
   38    37    39   108     9
   37    39    40    41     9
   37    39    40   109     9
   37    39    40   110     9
  107    39    40    41     9
  107    39    40   109     9
  107    39    40   110     9
  108    39    40    41     9
  108    39    40   109     9
  108    39    40   110     9
   39    40    41    42     9
   39    40    41   111     9
   39    40    41   112     9
  109    40    41    42     9
  109    40    41   111     9
  109    40    41   112     9
  110    40    41    42     9
  110    40    41   111     9
  110    40    41   112     9
   40    41    42    43     9
   40    41    42   113     9
   40    41    42   114     9
  111    41    42    43     9
  111    41    42   113     9
  111    41    42   114     9
  112    41    42    43     9
  112    41    42   113     9
  112    41    42   114     9
   41    42    43    44     9
   41    42    43   115     9
   41    42    43   116     9
  113    42    43    44     9
  113    42    43   115     9
  113    42    43   116     9
  114    42    43    44     9
  114    42    43   115     9
  114    42    43   116     9
   42    43    44    45     9
   42    43    44   117     9
   42    43    44   118     9
  115    43    44    45     9
  115    43    44   117     9
  115    43    44   118     9
  116    43    44    45     9
  116    43    44   117     9
  116    43    44   118     9
   43    44    45    46     9
   43    44    45   119     9
   43    44    45   120     9
  117    44    45    46     9
  117    44    45   119     9
  117    44    45   120     9
  118    44    45    46     9
  118    44    45   119     9
  118    44    45   120     9
   44    45    46    47     9
   44    45    46   121     9
   44    45    46   122     9
  119    45    46    47     9
  119    45    46   121     9
  119    45    46   122     9
  120    45    46    47     9
  120    45    46   121     9
  120    45    46   122     9
   45    46    47    48     9
   45    46    47   123     9
   45    46    47   124     9
  121    46    47    48     9
  121    46    47   123     9
  121    46    47   124     9
  122    46    47    48     9
  122    46    47   123     9
  122    46    47   124     9
   46    47    48    49     9
   46    47    48   125     9
   46    47    48   126     9
  123    47    48    49     9
  123    47    48   125     9
  123    47    48   126     9
  124    47    48    49     9
  124    47    48   125     9
  124    47    48   126     9
   47    48    49    50     9
   47    48    49   127     9
   47    48    49   128     9
  125    48    49    50     9
  125    48    49   127     9
  125    48    49   128     9
  126    48    49    50     9
  126    48    49   127     9
  126    48    49   128     9
   48    49    50    51     9
   48    49    50   129     9
   48    49    50   130     9
  127    49    50    51     9
  127    49    50   129     9
  127    49    50   130     9
  128    49    50    51     9
  128    49    50   129     9
  128    49    50   130     9
   49    50    51    52     9
   49    50    51   131     9
   49    50    51   132     9
  129    50    51    52     9
  129    50    51   131     9
  129    50    51   132     9
  130    50    51    52     9
  130    50    51   131     9
  130    50    51   132     9
   50    51    52    53     9
   50    51    52   133     9
   50    51    52   134     9
  131    51    52    53     9
  131    51    52   133     9
  131    51    52   134     9
  132    51    52    53     9
  132    51    52   133     9
  132    51    52   134     9
   51    52    53    54     9
   51    52    53   135     9
   51    52    53   136     9
  133    52    53    54     9
  133    52    53   135     9
  133    52    53   136     9
  134    52    53    54     9
  134    52    53   135     9
  134    52    53   136     9
   52    53    54    55     9
   52    53    54   137     9
   52    53    54   138     9
  135    53    54    55     9
  135    53    54   137     9
  135    53    54   138     9
  136    53    54    55     9
  136    53    54   137     9
  136    53    54   138     9
   53    54    55    56     9
   53    54    55    57     9
  137    54    55    56     9
  137    54    55    57     9
  138    54    55    56     9
  138    54    55    57     9
   34    35    58    59     9
   34    35    58    60     9
   36    35    58    59     9
   36    35    58    60     9
  105    35    58    59     9
  105    35    58    60     9
    4     5    61    62     9
    4     5    61    63     9
    6     5    61    62     9
    6     5    61    63     9
   69     5    61    62     9
   69     5    61    63     9
    5    61    63    64     9
    5    61    63   139     9
   62    61    63    64     9
   62    61    63   139     9
   61    63    64   140     9
   61    63    64   141     9
   61    63    64   142     9
  139    63    64   140     9
  139    63    64   141     9
  139    63    64   142     9

[ dihedrals ]
;  ai    aj    ak    al funct            c0            c1            c2            c3            c4            c5
    2     1     4     3     2
   11    13    10    12     2
   21    23    20    22     2
   31    33    30    32     2
   37    39    36    38     2
   55    57    56    54     2
   58    60    59    35     2
   61     5    63    62     2



; Include Position restraint file
#ifdef POSRES
#include "posre.itp"
#endif

; Include water topology
#include "./charmm36.ff/tip3p.itp"

#ifdef POSRES_WATER
; Position restraint for each water oxygen
[ position_restraints ]
;  i funct       fcx        fcy        fcz
   1    1       1000       1000       1000
#endif

; Include topology for ions
#include "./charmm36.ff/ions.itp"

[ system ]
; Name
    Ligand

[ molecules ]
; Compound        #mols
Other           1
