; Topology file generated by 
; CHARMM General Force Field (CGenFF) program version 4.0
; For use with CGenFF topology and parameter files version 5.0
; Generated on 2026-09-23 15:52:42 (user = unknown)
;
; Include forcefield parameters
#include "./charmm36.ff/forcefield.itp"
;
; Include ligand specific parameters
# include "./charmm36.ff/MRT_ffbonded.itp"
;
[ moleculetype ]
; Name            nrexcl
Other               3
;
[ atoms ]
;   nr       type  resnr residue  atom   cgnr     charge       mass  typeB    chargeB      massB
; residue   1 MRT rtp MRT  q -2.0
     1      CG2O3      1    MRT     C1      1      0.333     12.011   ; qtot 0.333
     2      NG3P3      1    MRT     N2      2     -0.328     14.007   ; qtot -0.328
     3       HGP2      1    MRT     H3      3      0.286      1.008   ; qtot 0.286
     4       HGP2      1    MRT     H4      4      0.286      1.008   ; qtot 0.286
     5       HGP2      1    MRT     H5      5      0.286      1.008   ; qtot 0.286
     6      CG314      1    MRT     C6      6      0.157     12.011   ; qtot 0.157
     7       HGA1      1    MRT     H7      7       0.09      1.008   ; qtot 0.09
     8      CG321      1    MRT     C8      8     -0.226     12.011   ; qtot -0.226
     9       HGA2      1    MRT     H9      9       0.09      1.008   ; qtot 0.09
    10       HGA2      1    MRT    H10     10       0.09      1.008   ; qtot 0.09
    11      CG321      1    MRT    C11     11     -0.149     12.011   ; qtot -0.149
    12       HGA2      1    MRT    H12     12       0.09      1.008   ; qtot 0.09
    13       HGA2      1    MRT    H13     13       0.09      1.008   ; qtot 0.09
    14      CG321      1    MRT    C14     14     -0.135     12.011   ; qtot -0.135
    15       HGA2      1    MRT    H15     15       0.09      1.008   ; qtot 0.09
    16       HGA2      1    MRT    H16     16       0.09      1.008   ; qtot 0.09
    17      CG321      1    MRT    C17     17 -0.00400001     12.011   ; qtot -0.004
    18       HGA2      1    MRT    H18     18       0.09      1.008   ; qtot 0.09
    19       HGA2      1    MRT    H19     19       0.09      1.008   ; qtot 0.09
    20      NG2S1      1    MRT    N20     20     -0.487     14.007   ; qtot -0.487
    21       HGP1      1    MRT    H21     21      0.317      1.008   ; qtot 0.317
    22      OG2D2      1    MRT    O22     22      -0.57    15.9994   ; qtot -0.57
    23      CG2O1      1    MRT    C23     23      0.523     12.011   ; qtot 0.523
    24      OG2D1      1    MRT    O24     24     -0.457    15.9994   ; qtot -0.457
    25      CG321      1    MRT    C25     25      0.155     12.011   ; qtot 0.155
    26       HGA2      1    MRT    H26     26       0.09      1.008   ; qtot 0.09
    27       HGA2      1    MRT    H27     27       0.09      1.008   ; qtot 0.09
    28      OG301      1    MRT    O28     28      -0.58    15.9994   ; qtot -0.58
    29      CG321      1    MRT    C29     29     -0.007     12.011   ; qtot -0.007
    30       HGA2      1    MRT    H30     30       0.09      1.008   ; qtot 0.09
    31       HGA2      1    MRT    H31     31       0.09      1.008   ; qtot 0.09
    32      CG321      1    MRT    C32     32 -0.00600001     12.011   ; qtot -0.006
    33       HGA2      1    MRT    H33     33       0.09      1.008   ; qtot 0.09
    34       HGA2      1    MRT    H34     34       0.09      1.008   ; qtot 0.09
    35      OG301      1    MRT    O35     35     -0.348    15.9994   ; qtot -0.348
    36      CG321      1    MRT    C36     36 0.00500001     12.011   ; qtot 0.005
    37       HGA2      1    MRT    H37     37       0.09      1.008   ; qtot 0.09
    38       HGA2      1    MRT    H38     38       0.09      1.008   ; qtot 0.09
    39      CG321      1    MRT    C39     39      -0.01     12.011   ; qtot -0.01
    40       HGA2      1    MRT    H40     40       0.09      1.008   ; qtot 0.09
    41       HGA2      1    MRT    H41     41       0.09      1.008   ; qtot 0.09
    42      NG2S1      1    MRT    N42     42     -0.477     14.007   ; qtot -0.477
    43       HGP1      1    MRT    H43     43      0.317      1.008   ; qtot 0.317
    44      CG2O3      1    MRT    C44     44      0.646     12.011   ; qtot 0.646
    45      NG2S1      1    MRT    N45     45     -0.476     14.007   ; qtot -0.476
    46       HGP1      1    MRT    H46     46      0.426      1.008   ; qtot 0.426
    47      CG311      1    MRT    C47     47     -0.172     12.011   ; qtot -0.172
    48       HGA1      1    MRT    H48     48       0.09      1.008   ; qtot 0.09
    49      CG321      1    MRT    C49     49     -0.139     12.011   ; qtot -0.139
    50       HGA2      1    MRT    H50     50       0.09      1.008   ; qtot 0.09
    51       HGA2      1    MRT    H51     51       0.09      1.008   ; qtot 0.09
    52      CG321      1    MRT    C52     52     -0.194     12.011   ; qtot -0.194
    53       HGA2      1    MRT    H53     53       0.09      1.008   ; qtot 0.09
    54       HGA2      1    MRT    H54     54       0.09      1.008   ; qtot 0.09
    55      CG2O1      1    MRT    C55     55      0.483     12.011   ; qtot 0.483
    56      OG2D1      1    MRT    O56     56     -0.521    15.9994   ; qtot -0.521
    57      OG2D2      1    MRT    O57     57     -0.761    15.9994   ; qtot -0.761
    58      OG2D2      1    MRT    O58     58     -0.761    15.9994   ; qtot -0.761
    59      CG2O1      1    MRT    C59     59      0.489     12.011   ; qtot 0.489
    60      CG321      1    MRT    C60     60     -0.204     12.011   ; qtot -0.204
    61       HGA2      1    MRT    H61     61       0.09      1.008   ; qtot 0.09
    62       HGA2      1    MRT    H62     62       0.09      1.008   ; qtot 0.09
    63      CG321      1    MRT    C63     63     -0.166     12.011   ; qtot -0.166
    64       HGA2      1    MRT    H64     64       0.09      1.008   ; qtot 0.09
    65       HGA2      1    MRT    H65     65       0.09      1.008   ; qtot 0.09
    66      CG321      1    MRT    C66     66     -0.144     12.011   ; qtot -0.144
    67       HGA2      1    MRT    H67     67       0.09      1.008   ; qtot 0.09
    68       HGA2      1    MRT    H68     68       0.09      1.008   ; qtot 0.09
    69      CG321      1    MRT    C69     69      -0.18     12.011   ; qtot -0.18
    70       HGA2      1    MRT    H70     70       0.09      1.008   ; qtot 0.09
    71       HGA2      1    MRT    H71     71       0.09      1.008   ; qtot 0.09
    72      CG321      1    MRT    C72     72      -0.18     12.011   ; qtot -0.18
    73       HGA2      1    MRT    H73     73       0.09      1.008   ; qtot 0.09
    74       HGA2      1    MRT    H74     74       0.09      1.008   ; qtot 0.09
    75      CG321      1    MRT    C75     75      -0.18     12.011   ; qtot -0.18
    76       HGA2      1    MRT    H76     76       0.09      1.008   ; qtot 0.09
    77       HGA2      1    MRT    H77     77       0.09      1.008   ; qtot 0.09
    78      CG321      1    MRT    C78     78      -0.18     12.011   ; qtot -0.18
    79       HGA2      1    MRT    H79     79       0.09      1.008   ; qtot 0.09
    80       HGA2      1    MRT    H80     80       0.09      1.008   ; qtot 0.09
    81      CG321      1    MRT    C81     81      -0.18     12.011   ; qtot -0.18
    82       HGA2      1    MRT    H82     82       0.09      1.008   ; qtot 0.09
    83       HGA2      1    MRT    H83     83       0.09      1.008   ; qtot 0.09
    84      CG321      1    MRT    C84     84      -0.18     12.011   ; qtot -0.18
    85       HGA2      1    MRT    H85     85       0.09      1.008   ; qtot 0.09
    86       HGA2      1    MRT    H86     86       0.09      1.008   ; qtot 0.09
    87      CG321      1    MRT    C87     87      -0.18     12.011   ; qtot -0.18
    88       HGA2      1    MRT    H88     88       0.09      1.008   ; qtot 0.09
    89       HGA2      1    MRT    H89     89       0.09      1.008   ; qtot 0.09
    90      CG321      1    MRT    C90     90      -0.18     12.011   ; qtot -0.18
    91       HGA2      1    MRT    H91     91       0.09      1.008   ; qtot 0.09
    92       HGA2      1    MRT    H92     92       0.09      1.008   ; qtot 0.09
    93      CG321      1    MRT    C93     93      -0.18     12.011   ; qtot -0.18
    94       HGA2      1    MRT    H94     94       0.09      1.008   ; qtot 0.09
    95       HGA2      1    MRT    H95     95       0.09      1.008   ; qtot 0.09
    96      CG321      1    MRT    C96     96      -0.18     12.011   ; qtot -0.18
    97       HGA2      1    MRT    H97     97       0.09      1.008   ; qtot 0.09
    98       HGA2      1    MRT    H98     98       0.09      1.008   ; qtot 0.09
    99      CG321      1    MRT    C99     99      -0.18     12.011   ; qtot -0.18
   100       HGA2      1    MRT   H100    100       0.09      1.008   ; qtot 0.09
   101       HGA2      1    MRT   H101    101       0.09      1.008   ; qtot 0.09
   102      CG321      1    MRT   C102    102      -0.18     12.011   ; qtot -0.18
   103       HGA2      1    MRT   H103    103       0.09      1.008   ; qtot 0.09
   104       HGA2      1    MRT   H104    104       0.09      1.008   ; qtot 0.09
   105      CG321      1    MRT   C105    105      -0.18     12.011   ; qtot -0.18
   106       HGA2      1    MRT   H106    106       0.09      1.008   ; qtot 0.09
   107       HGA2      1    MRT   H107    107       0.09      1.008   ; qtot 0.09
   108      CG321      1    MRT   C108    108      -0.18     12.011   ; qtot -0.18
   109       HGA2      1    MRT   H109    109       0.09      1.008   ; qtot 0.09
   110       HGA2      1    MRT   H110    110       0.09      1.008   ; qtot 0.09
   111      CG321      1    MRT   C111    111     -0.282     12.011   ; qtot -0.282
   112       HGA2      1    MRT   H112    112       0.09      1.008   ; qtot 0.09
   113       HGA2      1    MRT   H113    113       0.09      1.008   ; qtot 0.09
   114      OG2D1      1    MRT   O114    114     -0.517    15.9994   ; qtot -0.517
   115      CG2O3      1    MRT   C115    115      0.622     12.011   ; qtot 0.622
   116      OG2D2      1    MRT   O116    116      -0.76    15.9994   ; qtot -0.76
   117      OG2D2      1    MRT   O117    117      -0.76    15.9994   ; qtot -0.76
   118      OG2D2      1    MRT   O118    118      -0.57    15.9994   ; qtot -0.57

[ bonds ]
;  ai    aj funct            c0            c1            c2            c3
    1     6     1
    1    22     1
    1   118     1
    2     3     1
    2     4     1
    2     5     1
    2     6     1
    6     7     1
    6     8     1
    8     9     1
    8    10     1
    8    11     1
   11    12     1
   11    13     1
   11    14     1
   14    15     1
   14    16     1
   14    17     1
   17    18     1
   17    19     1
   17    20     1
   20    21     1
   20    23     1
   23    24     1
   23    25     1
   25    26     1
   25    27     1
   25    28     1
   28    29     1
   29    30     1
   29    31     1
   29    32     1
   32    33     1
   32    34     1
   32    35     1
   35    36     1
   36    37     1
   36    38     1
   36    39     1
   39    40     1
   39    41     1
   39    42     1
   42    43     1
   42    55     1
   44    47     1
   44    57     1
   44    58     1
   45    46     1
   45    47     1
   45    59     1
   47    48     1
   47    49     1
   49    50     1
   49    51     1
   49    52     1
   52    53     1
   52    54     1
   52    55     1
   55    56     1
   59    60     1
   59   114     1
   60    61     1
   60    62     1
   60    63     1
   63    64     1
   63    65     1
   63    66     1
   66    67     1
   66    68     1
   66    69     1
   69    70     1
   69    71     1
   69    72     1
   72    73     1
   72    74     1
   72    75     1
   75    76     1
   75    77     1
   75    78     1
   78    79     1
   78    80     1
   78    81     1
   81    82     1
   81    83     1
   81    84     1
   84    85     1
   84    86     1
   84    87     1
   87    88     1
   87    89     1
   87    90     1
   90    91     1
   90    92     1
   90    93     1
   93    94     1
   93    95     1
   93    96     1
   96    97     1
   96    98     1
   96    99     1
   99   100     1
   99   101     1
   99   102     1
  102   103     1
  102   104     1
  102   105     1
  105   106     1
  105   107     1
  105   108     1
  108   109     1
  108   110     1
  108   111     1
  111   112     1
  111   113     1
  111   115     1
  115   116     1
  115   117     1

[ pairs ]
;  ai    aj funct            c0            c1            c2            c3
    1     3     1
    1     4     1
    1     5     1
    1     9     1
    1    10     1
    1    11     1
    2     9     1
    2    10     1
    2    11     1
    2    22     1
    2   118     1
    3     7     1
    3     8     1
    4     7     1
    4     8     1
    5     7     1
    5     8     1
    6    12     1
    6    13     1
    6    14     1
    7     9     1
    7    10     1
    7    11     1
    7    22     1
    7   118     1
    8    15     1
    8    16     1
    8    17     1
    8    22     1
    8   118     1
    9    12     1
    9    13     1
    9    14     1
   10    12     1
   10    13     1
   10    14     1
   11    18     1
   11    19     1
   11    20     1
   12    15     1
   12    16     1
   12    17     1
   13    15     1
   13    16     1
   13    17     1
   14    21     1
   14    23     1
   15    18     1
   15    19     1
   15    20     1
   16    18     1
   16    19     1
   16    20     1
   17    24     1
   17    25     1
   18    21     1
   18    23     1
   19    21     1
   19    23     1
   20    26     1
   20    27     1
   20    28     1
   21    24     1
   21    25     1
   23    29     1
   24    26     1
   24    27     1
   24    28     1
   25    30     1
   25    31     1
   25    32     1
   26    29     1
   27    29     1
   28    33     1
   28    34     1
   28    35     1
   29    36     1
   30    33     1
   30    34     1
   30    35     1
   31    33     1
   31    34     1
   31    35     1
   32    37     1
   32    38     1
   32    39     1
   33    36     1
   34    36     1
   35    40     1
   35    41     1
   35    42     1
   36    43     1
   36    55     1
   37    40     1
   37    41     1
   37    42     1
   38    40     1
   38    41     1
   38    42     1
   39    52     1
   39    56     1
   40    43     1
   40    55     1
   41    43     1
   41    55     1
   42    49     1
   42    53     1
   42    54     1
   43    52     1
   43    56     1
   44    46     1
   44    50     1
   44    51     1
   44    52     1
   44    59     1
   45    50     1
   45    51     1
   45    52     1
   45    57     1
   45    58     1
   45    61     1
   45    62     1
   45    63     1
   46    48     1
   46    49     1
   46    60     1
   46   114     1
   47    53     1
   47    54     1
   47    55     1
   47    60     1
   47   114     1
   48    50     1
   48    51     1
   48    52     1
   48    57     1
   48    58     1
   48    59     1
   49    56     1
   49    57     1
   49    58     1
   49    59     1
   50    53     1
   50    54     1
   50    55     1
   51    53     1
   51    54     1
   51    55     1
   53    56     1
   54    56     1
   59    64     1
   59    65     1
   59    66     1
   60    67     1
   60    68     1
   60    69     1
   61    64     1
   61    65     1
   61    66     1
   61   114     1
   62    64     1
   62    65     1
   62    66     1
   62   114     1
   63    70     1
   63    71     1
   63    72     1
   63   114     1
   64    67     1
   64    68     1
   64    69     1
   65    67     1
   65    68     1
   65    69     1
   66    73     1
   66    74     1
   66    75     1
   67    70     1
   67    71     1
   67    72     1
   68    70     1
   68    71     1
   68    72     1
   69    76     1
   69    77     1
   69    78     1
   70    73     1
   70    74     1
   70    75     1
   71    73     1
   71    74     1
   71    75     1
   72    79     1
   72    80     1
   72    81     1
   73    76     1
   73    77     1
   73    78     1
   74    76     1
   74    77     1
   74    78     1
   75    82     1
   75    83     1
   75    84     1
   76    79     1
   76    80     1
   76    81     1
   77    79     1
   77    80     1
   77    81     1
   78    85     1
   78    86     1
   78    87     1
   79    82     1
   79    83     1
   79    84     1
   80    82     1
   80    83     1
   80    84     1
   81    88     1
   81    89     1
   81    90     1
   82    85     1
   82    86     1
   82    87     1
   83    85     1
   83    86     1
   83    87     1
   84    91     1
   84    92     1
   84    93     1
   85    88     1
   85    89     1
   85    90     1
   86    88     1
   86    89     1
   86    90     1
   87    94     1
   87    95     1
   87    96     1
   88    91     1
   88    92     1
   88    93     1
   89    91     1
   89    92     1
   89    93     1
   90    97     1
   90    98     1
   90    99     1
   91    94     1
   91    95     1
   91    96     1
   92    94     1
   92    95     1
   92    96     1
   93   100     1
   93   101     1
   93   102     1
   94    97     1
   94    98     1
   94    99     1
   95    97     1
   95    98     1
   95    99     1
   96   103     1
   96   104     1
   96   105     1
   97   100     1
   97   101     1
   97   102     1
   98   100     1
   98   101     1
   98   102     1
   99   106     1
   99   107     1
   99   108     1
  100   103     1
  100   104     1
  100   105     1
  101   103     1
  101   104     1
  101   105     1
  102   109     1
  102   110     1
  102   111     1
  103   106     1
  103   107     1
  103   108     1
  104   106     1
  104   107     1
  104   108     1
  105   112     1
  105   113     1
  105   115     1
  106   109     1
  106   110     1
  106   111     1
  107   109     1
  107   110     1
  107   111     1
  108   116     1
  108   117     1
  109   112     1
  109   113     1
  109   115     1
  110   112     1
  110   113     1
  110   115     1
  112   116     1
  112   117     1
  113   116     1
  113   117     1

[ angles ]
;  ai    aj    ak funct            c0            c1            c2            c3
    6     1    22     5
    6     1   118     5
   22     1   118     5
    3     2     4     5
    3     2     5     5
    3     2     6     5
    4     2     5     5
    4     2     6     5
    5     2     6     5
    1     6     2     5
    1     6     7     5
    1     6     8     5
    2     6     7     5
    2     6     8     5
    7     6     8     5
    6     8     9     5
    6     8    10     5
    6     8    11     5
    9     8    10     5
    9     8    11     5
   10     8    11     5
    8    11    12     5
    8    11    13     5
    8    11    14     5
   12    11    13     5
   12    11    14     5
   13    11    14     5
   11    14    15     5
   11    14    16     5
   11    14    17     5
   15    14    16     5
   15    14    17     5
   16    14    17     5
   14    17    18     5
   14    17    19     5
   14    17    20     5
   18    17    19     5
   18    17    20     5
   19    17    20     5
   17    20    21     5
   17    20    23     5
   21    20    23     5
   20    23    24     5
   20    23    25     5
   24    23    25     5
   23    25    26     5
   23    25    27     5
   23    25    28     5
   26    25    27     5
   26    25    28     5
   27    25    28     5
   25    28    29     5
   28    29    30     5
   28    29    31     5
   28    29    32     5
   30    29    31     5
   30    29    32     5
   31    29    32     5
   29    32    33     5
   29    32    34     5
   29    32    35     5
   33    32    34     5
   33    32    35     5
   34    32    35     5
   32    35    36     5
   35    36    37     5
   35    36    38     5
   35    36    39     5
   37    36    38     5
   37    36    39     5
   38    36    39     5
   36    39    40     5
   36    39    41     5
   36    39    42     5
   40    39    41     5
   40    39    42     5
   41    39    42     5
   39    42    43     5
   39    42    55     5
   43    42    55     5
   47    44    57     5
   47    44    58     5
   57    44    58     5
   46    45    47     5
   46    45    59     5
   47    45    59     5
   44    47    45     5
   44    47    48     5
   44    47    49     5
   45    47    48     5
   45    47    49     5
   48    47    49     5
   47    49    50     5
   47    49    51     5
   47    49    52     5
   50    49    51     5
   50    49    52     5
   51    49    52     5
   49    52    53     5
   49    52    54     5
   49    52    55     5
   53    52    54     5
   53    52    55     5
   54    52    55     5
   42    55    52     5
   42    55    56     5
   52    55    56     5
   45    59    60     5
   45    59   114     5
   60    59   114     5
   59    60    61     5
   59    60    62     5
   59    60    63     5
   61    60    62     5
   61    60    63     5
   62    60    63     5
   60    63    64     5
   60    63    65     5
   60    63    66     5
   64    63    65     5
   64    63    66     5
   65    63    66     5
   63    66    67     5
   63    66    68     5
   63    66    69     5
   67    66    68     5
   67    66    69     5
   68    66    69     5
   66    69    70     5
   66    69    71     5
   66    69    72     5
   70    69    71     5
   70    69    72     5
   71    69    72     5
   69    72    73     5
   69    72    74     5
   69    72    75     5
   73    72    74     5
   73    72    75     5
   74    72    75     5
   72    75    76     5
   72    75    77     5
   72    75    78     5
   76    75    77     5
   76    75    78     5
   77    75    78     5
   75    78    79     5
   75    78    80     5
   75    78    81     5
   79    78    80     5
   79    78    81     5
   80    78    81     5
   78    81    82     5
   78    81    83     5
   78    81    84     5
   82    81    83     5
   82    81    84     5
   83    81    84     5
   81    84    85     5
   81    84    86     5
   81    84    87     5
   85    84    86     5
   85    84    87     5
   86    84    87     5
   84    87    88     5
   84    87    89     5
   84    87    90     5
   88    87    89     5
   88    87    90     5
   89    87    90     5
   87    90    91     5
   87    90    92     5
   87    90    93     5
   91    90    92     5
   91    90    93     5
   92    90    93     5
   90    93    94     5
   90    93    95     5
   90    93    96     5
   94    93    95     5
   94    93    96     5
   95    93    96     5
   93    96    97     5
   93    96    98     5
   93    96    99     5
   97    96    98     5
   97    96    99     5
   98    96    99     5
   96    99   100     5
   96    99   101     5
   96    99   102     5
  100    99   101     5
  100    99   102     5
  101    99   102     5
   99   102   103     5
   99   102   104     5
   99   102   105     5
  103   102   104     5
  103   102   105     5
  104   102   105     5
  102   105   106     5
  102   105   107     5
  102   105   108     5
  106   105   107     5
  106   105   108     5
  107   105   108     5
  105   108   109     5
  105   108   110     5
  105   108   111     5
  109   108   110     5
  109   108   111     5
  110   108   111     5
  108   111   112     5
  108   111   113     5
  108   111   115     5
  112   111   113     5
  112   111   115     5
  113   111   115     5
  111   115   116     5
  111   115   117     5
  116   115   117     5

[ dihedrals ]
;  ai    aj    ak    al funct            c0            c1            c2            c3            c4            c5
   22     1     6     2     9
   22     1     6     7     9
   22     1     6     8     9
  118     1     6     2     9
  118     1     6     7     9
  118     1     6     8     9
    3     2     6     1     9
    3     2     6     7     9
    3     2     6     8     9
    4     2     6     1     9
    4     2     6     7     9
    4     2     6     8     9
    5     2     6     1     9
    5     2     6     7     9
    5     2     6     8     9
    1     6     8     9     9
    1     6     8    10     9
    1     6     8    11     9
    2     6     8     9     9
    2     6     8    10     9
    2     6     8    11     9
    7     6     8     9     9
    7     6     8    10     9
    7     6     8    11     9
    6     8    11    12     9
    6     8    11    13     9
    6     8    11    14     9
    9     8    11    12     9
    9     8    11    13     9
    9     8    11    14     9
   10     8    11    12     9
   10     8    11    13     9
   10     8    11    14     9
    8    11    14    15     9
    8    11    14    16     9
    8    11    14    17     9
   12    11    14    15     9
   12    11    14    16     9
   12    11    14    17     9
   13    11    14    15     9
   13    11    14    16     9
   13    11    14    17     9
   11    14    17    18     9
   11    14    17    19     9
   11    14    17    20     9
   15    14    17    18     9
   15    14    17    19     9
   15    14    17    20     9
   16    14    17    18     9
   16    14    17    19     9
   16    14    17    20     9
   14    17    20    21     9
   14    17    20    23     9
   18    17    20    21     9
   18    17    20    23     9
   19    17    20    21     9
   19    17    20    23     9
   17    20    23    24     9
   17    20    23    25     9
   21    20    23    24     9
   21    20    23    25     9
   20    23    25    26     9
   20    23    25    27     9
   20    23    25    28     9
   24    23    25    26     9
   24    23    25    27     9
   24    23    25    28     9
   23    25    28    29     9
   26    25    28    29     9
   27    25    28    29     9
   25    28    29    30     9
   25    28    29    31     9
   25    28    29    32     9
   28    29    32    33     9
   28    29    32    34     9
   28    29    32    35     9
   30    29    32    33     9
   30    29    32    34     9
   30    29    32    35     9
   31    29    32    33     9
   31    29    32    34     9
   31    29    32    35     9
   29    32    35    36     9
   33    32    35    36     9
   34    32    35    36     9
   32    35    36    37     9
   32    35    36    38     9
   32    35    36    39     9
   35    36    39    40     9
   35    36    39    41     9
   35    36    39    42     9
   37    36    39    40     9
   37    36    39    41     9
   37    36    39    42     9
   38    36    39    40     9
   38    36    39    41     9
   38    36    39    42     9
   36    39    42    43     9
   36    39    42    55     9
   40    39    42    43     9
   40    39    42    55     9
   41    39    42    43     9
   41    39    42    55     9
   39    42    55    52     9
   39    42    55    56     9
   43    42    55    52     9
   43    42    55    56     9
   57    44    47    45     9
   57    44    47    48     9
   57    44    47    49     9
   58    44    47    45     9
   58    44    47    48     9
   58    44    47    49     9
   46    45    47    44     9
   46    45    47    48     9
   46    45    47    49     9
   59    45    47    44     9
   59    45    47    48     9
   59    45    47    49     9
   46    45    59    60     9
   46    45    59   114     9
   47    45    59    60     9
   47    45    59   114     9
   44    47    49    50     9
   44    47    49    51     9
   44    47    49    52     9
   45    47    49    50     9
   45    47    49    51     9
   45    47    49    52     9
   48    47    49    50     9
   48    47    49    51     9
   48    47    49    52     9
   47    49    52    53     9
   47    49    52    54     9
   47    49    52    55     9
   50    49    52    53     9
   50    49    52    54     9
   50    49    52    55     9
   51    49    52    53     9
   51    49    52    54     9
   51    49    52    55     9
   49    52    55    42     9
   49    52    55    56     9
   53    52    55    42     9
   53    52    55    56     9
   54    52    55    42     9
   54    52    55    56     9
   45    59    60    61     9
   45    59    60    62     9
   45    59    60    63     9
  114    59    60    61     9
  114    59    60    62     9
  114    59    60    63     9
   59    60    63    64     9
   59    60    63    65     9
   59    60    63    66     9
   61    60    63    64     9
   61    60    63    65     9
   61    60    63    66     9
   62    60    63    64     9
   62    60    63    65     9
   62    60    63    66     9
   60    63    66    67     9
   60    63    66    68     9
   60    63    66    69     9
   64    63    66    67     9
   64    63    66    68     9
   64    63    66    69     9
   65    63    66    67     9
   65    63    66    68     9
   65    63    66    69     9
   63    66    69    70     9
   63    66    69    71     9
   63    66    69    72     9
   67    66    69    70     9
   67    66    69    71     9
   67    66    69    72     9
   68    66    69    70     9
   68    66    69    71     9
   68    66    69    72     9
   66    69    72    73     9
   66    69    72    74     9
   66    69    72    75     9
   70    69    72    73     9
   70    69    72    74     9
   70    69    72    75     9
   71    69    72    73     9
   71    69    72    74     9
   71    69    72    75     9
   69    72    75    76     9
   69    72    75    77     9
   69    72    75    78     9
   73    72    75    76     9
   73    72    75    77     9
   73    72    75    78     9
   74    72    75    76     9
   74    72    75    77     9
   74    72    75    78     9
   72    75    78    79     9
   72    75    78    80     9
   72    75    78    81     9
   76    75    78    79     9
   76    75    78    80     9
   76    75    78    81     9
   77    75    78    79     9
   77    75    78    80     9
   77    75    78    81     9
   75    78    81    82     9
   75    78    81    83     9
   75    78    81    84     9
   79    78    81    82     9
   79    78    81    83     9
   79    78    81    84     9
   80    78    81    82     9
   80    78    81    83     9
   80    78    81    84     9
   78    81    84    85     9
   78    81    84    86     9
   78    81    84    87     9
   82    81    84    85     9
   82    81    84    86     9
   82    81    84    87     9
   83    81    84    85     9
   83    81    84    86     9
   83    81    84    87     9
   81    84    87    88     9
   81    84    87    89     9
   81    84    87    90     9
   85    84    87    88     9
   85    84    87    89     9
   85    84    87    90     9
   86    84    87    88     9
   86    84    87    89     9
   86    84    87    90     9
   84    87    90    91     9
   84    87    90    92     9
   84    87    90    93     9
   88    87    90    91     9
   88    87    90    92     9
   88    87    90    93     9
   89    87    90    91     9
   89    87    90    92     9
   89    87    90    93     9
   87    90    93    94     9
   87    90    93    95     9
   87    90    93    96     9
   91    90    93    94     9
   91    90    93    95     9
   91    90    93    96     9
   92    90    93    94     9
   92    90    93    95     9
   92    90    93    96     9
   90    93    96    97     9
   90    93    96    98     9
   90    93    96    99     9
   94    93    96    97     9
   94    93    96    98     9
   94    93    96    99     9
   95    93    96    97     9
   95    93    96    98     9
   95    93    96    99     9
   93    96    99   100     9
   93    96    99   101     9
   93    96    99   102     9
   97    96    99   100     9
   97    96    99   101     9
   97    96    99   102     9
   98    96    99   100     9
   98    96    99   101     9
   98    96    99   102     9
   96    99   102   103     9
   96    99   102   104     9
   96    99   102   105     9
  100    99   102   103     9
  100    99   102   104     9
  100    99   102   105     9
  101    99   102   103     9
  101    99   102   104     9
  101    99   102   105     9
   99   102   105   106     9
   99   102   105   107     9
   99   102   105   108     9
  103   102   105   106     9
  103   102   105   107     9
  103   102   105   108     9
  104   102   105   106     9
  104   102   105   107     9
  104   102   105   108     9
  102   105   108   109     9
  102   105   108   110     9
  102   105   108   111     9
  106   105   108   109     9
  106   105   108   110     9
  106   105   108   111     9
  107   105   108   109     9
  107   105   108   110     9
  107   105   108   111     9
  105   108   111   112     9
  105   108   111   113     9
  105   108   111   115     9
  109   108   111   112     9
  109   108   111   113     9
  109   108   111   115     9
  110   108   111   112     9
  110   108   111   113     9
  110   108   111   115     9
  108   111   115   116     9
  108   111   115   117     9
  112   111   115   116     9
  112   111   115   117     9
  113   111   115   116     9
  113   111   115   117     9

[ dihedrals ]
;  ai    aj    ak    al funct            c0            c1            c2            c3            c4            c5
    1   118    22     6     2
   23    25    20    24     2
   44    58    57    47     2
   55    52    42    56     2
   59    60    45   114     2
  115   117   116   111     2



; Include Position restraint file
#ifdef POSRES
#include "posre_MRTR.itp"
#endif

; Include water topology
#include "./charmm36.ff/tip3p.itp"

#ifdef POSRES_WATER
; Position restraint for each water oxygen
[ position_restraints ]
;  i funct       fcx        fcy        fcz
   1    1       1000       1000       1000
#endif

; Include topology for ions
#include "./charmm36.ff/ions.itp"

[ system ]
; Name
    Ligand

[ molecules ]
; Compound        #mols
Other           1
