; Topology file generated by 
; CHARMM General Force Field (CGenFF) program version 4.0
; For use with CGenFF topology and parameter files version 5.0
; Generated on 2026-09-23 15:53:18 (user = unknown)
;
; Include forcefield parameters
#include "./charmm36.ff/forcefield.itp"
;
; Include ligand specific parameters
# include "./charmm36.ff/MTZ_ffbonded.itp"
;
[ moleculetype ]
; Name            nrexcl
Other               3
;
[ atoms ]
;   nr       type  resnr residue  atom   cgnr     charge       mass  typeB    chargeB      massB
; residue   1 MTZ rtp MTZ  q -2.0
     1      OG2D2      1    MTZ     O1      1      -0.57    15.9994   ; qtot -0.57
     2      CG2O3      1    MTZ     C2      2      0.333     12.011   ; qtot 0.333
     3      CG314      1    MTZ     C3      3      0.157     12.011   ; qtot 0.157
     4       HGA1      1    MTZ     H4      4       0.09      1.008   ; qtot 0.09
     5      CG321      1    MTZ     C5      5     -0.226     12.011   ; qtot -0.226
     6       HGA2      1    MTZ     H6      6       0.09      1.008   ; qtot 0.09
     7       HGA2      1    MTZ     H7      7       0.09      1.008   ; qtot 0.09
     8      CG321      1    MTZ     C8      8     -0.149     12.011   ; qtot -0.149
     9       HGA2      1    MTZ     H9      9       0.09      1.008   ; qtot 0.09
    10       HGA2      1    MTZ    H10     10       0.09      1.008   ; qtot 0.09
    11      CG321      1    MTZ    C11     11     -0.135     12.011   ; qtot -0.135
    12       HGA2      1    MTZ    H12     12       0.09      1.008   ; qtot 0.09
    13       HGA2      1    MTZ    H13     13       0.09      1.008   ; qtot 0.09
    14      CG321      1    MTZ    C14     14 -0.00400001     12.011   ; qtot -0.004
    15       HGA2      1    MTZ    H15     15       0.09      1.008   ; qtot 0.09
    16       HGA2      1    MTZ    H16     16       0.09      1.008   ; qtot 0.09
    17      NG2S1      1    MTZ    N17     17     -0.487     14.007   ; qtot -0.487
    18       HGP1      1    MTZ    H18     18      0.317      1.008   ; qtot 0.317
    19      CG2O1      1    MTZ    C19     19      0.523     12.011   ; qtot 0.523
    20      CG321      1    MTZ    C20     20      0.155     12.011   ; qtot 0.155
    21       HGA2      1    MTZ    H21     21       0.09      1.008   ; qtot 0.09
    22       HGA2      1    MTZ    H22     22       0.09      1.008   ; qtot 0.09
    23      OG301      1    MTZ    O23     23      -0.58    15.9994   ; qtot -0.58
    24      CG321      1    MTZ    C24     24     -0.007     12.011   ; qtot -0.007
    25       HGA2      1    MTZ    H25     25       0.09      1.008   ; qtot 0.09
    26       HGA2      1    MTZ    H26     26       0.09      1.008   ; qtot 0.09
    27      CG321      1    MTZ    C27     27 -0.00600001     12.011   ; qtot -0.006
    28       HGA2      1    MTZ    H28     28       0.09      1.008   ; qtot 0.09
    29       HGA2      1    MTZ    H29     29       0.09      1.008   ; qtot 0.09
    30      OG301      1    MTZ    O30     30     -0.348    15.9994   ; qtot -0.348
    31      CG321      1    MTZ    C31     31 0.00500001     12.011   ; qtot 0.005
    32       HGA2      1    MTZ    H32     32       0.09      1.008   ; qtot 0.09
    33       HGA2      1    MTZ    H33     33       0.09      1.008   ; qtot 0.09
    34      CG321      1    MTZ    C34     34      -0.01     12.011   ; qtot -0.01
    35       HGA2      1    MTZ    H35     35       0.09      1.008   ; qtot 0.09
    36       HGA2      1    MTZ    H36     36       0.09      1.008   ; qtot 0.09
    37      NG2S1      1    MTZ    N37     37     -0.492     14.007   ; qtot -0.492
    38       HGP1      1    MTZ    H38     38      0.317      1.008   ; qtot 0.317
    39      CG2O1      1    MTZ    C39     39      0.523     12.011   ; qtot 0.523
    40      CG321      1    MTZ    C40     40      0.155     12.011   ; qtot 0.155
    41       HGA2      1    MTZ    H41     41       0.09      1.008   ; qtot 0.09
    42       HGA2      1    MTZ    H42     42       0.09      1.008   ; qtot 0.09
    43      OG301      1    MTZ    O43     43      -0.58    15.9994   ; qtot -0.58
    44      CG321      1    MTZ    C44     44     -0.007     12.011   ; qtot -0.007
    45       HGA2      1    MTZ    H45     45       0.09      1.008   ; qtot 0.09
    46       HGA2      1    MTZ    H46     46       0.09      1.008   ; qtot 0.09
    47      CG321      1    MTZ    C47     47 -0.00600001     12.011   ; qtot -0.006
    48       HGA2      1    MTZ    H48     48       0.09      1.008   ; qtot 0.09
    49       HGA2      1    MTZ    H49     49       0.09      1.008   ; qtot 0.09
    50      OG301      1    MTZ    O50     50     -0.348    15.9994   ; qtot -0.348
    51      CG321      1    MTZ    C51     51 0.00500001     12.011   ; qtot 0.005
    52       HGA2      1    MTZ    H52     52       0.09      1.008   ; qtot 0.09
    53       HGA2      1    MTZ    H53     53       0.09      1.008   ; qtot 0.09
    54      CG321      1    MTZ    C54     54      -0.01     12.011   ; qtot -0.01
    55       HGA2      1    MTZ    H55     55       0.09      1.008   ; qtot 0.09
    56       HGA2      1    MTZ    H56     56       0.09      1.008   ; qtot 0.09
    57      NG2S1      1    MTZ    N57     57     -0.477     14.007   ; qtot -0.477
    58       HGP1      1    MTZ    H58     58      0.317      1.008   ; qtot 0.317
    59      CG2O1      1    MTZ    C59     59      0.483     12.011   ; qtot 0.483
    60      CG321      1    MTZ    C60     60     -0.194     12.011   ; qtot -0.194
    61       HGA2      1    MTZ    H61     61       0.09      1.008   ; qtot 0.09
    62       HGA2      1    MTZ    H62     62       0.09      1.008   ; qtot 0.09
    63      CG321      1    MTZ    C63     63     -0.139     12.011   ; qtot -0.139
    64       HGA2      1    MTZ    H64     64       0.09      1.008   ; qtot 0.09
    65       HGA2      1    MTZ    H65     65       0.09      1.008   ; qtot 0.09
    66      CG311      1    MTZ    C66     66     -0.172     12.011   ; qtot -0.172
    67       HGA1      1    MTZ    H67     67       0.09      1.008   ; qtot 0.09
    68      NG2S1      1    MTZ    N68     68     -0.476     14.007   ; qtot -0.476
    69       HGP1      1    MTZ    H69     69      0.426      1.008   ; qtot 0.426
    70      CG2O1      1    MTZ    C70     70      0.489     12.011   ; qtot 0.489
    71      CG321      1    MTZ    C71     71     -0.204     12.011   ; qtot -0.204
    72       HGA2      1    MTZ    H72     72       0.09      1.008   ; qtot 0.09
    73       HGA2      1    MTZ    H73     73       0.09      1.008   ; qtot 0.09
    74      CG321      1    MTZ    C74     74     -0.166     12.011   ; qtot -0.166
    75       HGA2      1    MTZ    H75     75       0.09      1.008   ; qtot 0.09
    76       HGA2      1    MTZ    H76     76       0.09      1.008   ; qtot 0.09
    77      CG321      1    MTZ    C77     77     -0.144     12.011   ; qtot -0.144
    78       HGA2      1    MTZ    H78     78       0.09      1.008   ; qtot 0.09
    79       HGA2      1    MTZ    H79     79       0.09      1.008   ; qtot 0.09
    80      CG321      1    MTZ    C80     80      -0.18     12.011   ; qtot -0.18
    81       HGA2      1    MTZ    H81     81       0.09      1.008   ; qtot 0.09
    82       HGA2      1    MTZ    H82     82       0.09      1.008   ; qtot 0.09
    83      CG321      1    MTZ    C83     83      -0.18     12.011   ; qtot -0.18
    84       HGA2      1    MTZ    H84     84       0.09      1.008   ; qtot 0.09
    85       HGA2      1    MTZ    H85     85       0.09      1.008   ; qtot 0.09
    86      CG321      1    MTZ    C86     86      -0.18     12.011   ; qtot -0.18
    87       HGA2      1    MTZ    H87     87       0.09      1.008   ; qtot 0.09
    88       HGA2      1    MTZ    H88     88       0.09      1.008   ; qtot 0.09
    89      CG321      1    MTZ    C89     89      -0.18     12.011   ; qtot -0.18
    90       HGA2      1    MTZ    H90     90       0.09      1.008   ; qtot 0.09
    91       HGA2      1    MTZ    H91     91       0.09      1.008   ; qtot 0.09
    92      CG321      1    MTZ    C92     92      -0.18     12.011   ; qtot -0.18
    93       HGA2      1    MTZ    H93     93       0.09      1.008   ; qtot 0.09
    94       HGA2      1    MTZ    H94     94       0.09      1.008   ; qtot 0.09
    95      CG321      1    MTZ    C95     95      -0.18     12.011   ; qtot -0.18
    96       HGA2      1    MTZ    H96     96       0.09      1.008   ; qtot 0.09
    97       HGA2      1    MTZ    H97     97       0.09      1.008   ; qtot 0.09
    98      CG321      1    MTZ    C98     98      -0.18     12.011   ; qtot -0.18
    99       HGA2      1    MTZ    H99     99       0.09      1.008   ; qtot 0.09
   100       HGA2      1    MTZ   H100    100       0.09      1.008   ; qtot 0.09
   101      CG321      1    MTZ   C101    101      -0.18     12.011   ; qtot -0.18
   102       HGA2      1    MTZ   H102    102       0.09      1.008   ; qtot 0.09
   103       HGA2      1    MTZ   H103    103       0.09      1.008   ; qtot 0.09
   104      CG321      1    MTZ   C104    104      -0.18     12.011   ; qtot -0.18
   105       HGA2      1    MTZ   H105    105       0.09      1.008   ; qtot 0.09
   106       HGA2      1    MTZ   H106    106       0.09      1.008   ; qtot 0.09
   107      CG321      1    MTZ   C107    107      -0.18     12.011   ; qtot -0.18
   108       HGA2      1    MTZ   H108    108       0.09      1.008   ; qtot 0.09
   109       HGA2      1    MTZ   H109    109       0.09      1.008   ; qtot 0.09
   110      CG321      1    MTZ   C110    110      -0.18     12.011   ; qtot -0.18
   111       HGA2      1    MTZ   H111    111       0.09      1.008   ; qtot 0.09
   112       HGA2      1    MTZ   H112    112       0.09      1.008   ; qtot 0.09
   113      CG321      1    MTZ   C113    113      -0.18     12.011   ; qtot -0.18
   114       HGA2      1    MTZ   H114    114       0.09      1.008   ; qtot 0.09
   115       HGA2      1    MTZ   H115    115       0.09      1.008   ; qtot 0.09
   116      CG321      1    MTZ   C116    116      -0.18     12.011   ; qtot -0.18
   117       HGA2      1    MTZ   H117    117       0.09      1.008   ; qtot 0.09
   118       HGA2      1    MTZ   H118    118       0.09      1.008   ; qtot 0.09
   119      CG321      1    MTZ   C119    119      -0.18     12.011   ; qtot -0.18
   120       HGA2      1    MTZ   H120    120       0.09      1.008   ; qtot 0.09
   121       HGA2      1    MTZ   H121    121       0.09      1.008   ; qtot 0.09
   122      CG321      1    MTZ   C122    122     -0.282     12.011   ; qtot -0.282
   123       HGA2      1    MTZ   H123    123       0.09      1.008   ; qtot 0.09
   124       HGA2      1    MTZ   H124    124       0.09      1.008   ; qtot 0.09
   125      CG2O3      1    MTZ   C125    125      0.622     12.011   ; qtot 0.622
   126      OG2D2      1    MTZ   O126    126      -0.76    15.9994   ; qtot -0.76
   127      OG2D2      1    MTZ   O127    127      -0.76    15.9994   ; qtot -0.76
   128      OG2D1      1    MTZ   O128    128     -0.517    15.9994   ; qtot -0.517
   129      CG2O3      1    MTZ   C129    129      0.646     12.011   ; qtot 0.646
   130      OG2D2      1    MTZ   O130    130     -0.761    15.9994   ; qtot -0.761
   131      OG2D2      1    MTZ   O131    131     -0.761    15.9994   ; qtot -0.761
   132      OG2D1      1    MTZ   O132    132     -0.521    15.9994   ; qtot -0.521
   133      OG2D1      1    MTZ   O133    133     -0.457    15.9994   ; qtot -0.457
   134      OG2D1      1    MTZ   O134    134     -0.457    15.9994   ; qtot -0.457
   135      NG3P3      1    MTZ   N135    135     -0.328     14.007   ; qtot -0.328
   136       HGP2      1    MTZ   H136    136      0.286      1.008   ; qtot 0.286
   137       HGP2      1    MTZ   H137    137      0.286      1.008   ; qtot 0.286
   138       HGP2      1    MTZ   H138    138      0.286      1.008   ; qtot 0.286
   139      OG2D2      1    MTZ   O139    139      -0.57    15.9994   ; qtot -0.57

[ bonds ]
;  ai    aj funct            c0            c1            c2            c3
    1     2     1
    2     3     1
    2   139     1
    3     4     1
    3     5     1
    3   135     1
    5     6     1
    5     7     1
    5     8     1
    8     9     1
    8    10     1
    8    11     1
   11    12     1
   11    13     1
   11    14     1
   14    15     1
   14    16     1
   14    17     1
   17    18     1
   17    19     1
   19    20     1
   19   134     1
   20    21     1
   20    22     1
   20    23     1
   23    24     1
   24    25     1
   24    26     1
   24    27     1
   27    28     1
   27    29     1
   27    30     1
   30    31     1
   31    32     1
   31    33     1
   31    34     1
   34    35     1
   34    36     1
   34    37     1
   37    38     1
   37    39     1
   39    40     1
   39   133     1
   40    41     1
   40    42     1
   40    43     1
   43    44     1
   44    45     1
   44    46     1
   44    47     1
   47    48     1
   47    49     1
   47    50     1
   50    51     1
   51    52     1
   51    53     1
   51    54     1
   54    55     1
   54    56     1
   54    57     1
   57    58     1
   57    59     1
   59    60     1
   59   132     1
   60    61     1
   60    62     1
   60    63     1
   63    64     1
   63    65     1
   63    66     1
   66    67     1
   66    68     1
   66   129     1
   68    69     1
   68    70     1
   70    71     1
   70   128     1
   71    72     1
   71    73     1
   71    74     1
   74    75     1
   74    76     1
   74    77     1
   77    78     1
   77    79     1
   77    80     1
   80    81     1
   80    82     1
   80    83     1
   83    84     1
   83    85     1
   83    86     1
   86    87     1
   86    88     1
   86    89     1
   89    90     1
   89    91     1
   89    92     1
   92    93     1
   92    94     1
   92    95     1
   95    96     1
   95    97     1
   95    98     1
   98    99     1
   98   100     1
   98   101     1
  101   102     1
  101   103     1
  101   104     1
  104   105     1
  104   106     1
  104   107     1
  107   108     1
  107   109     1
  107   110     1
  110   111     1
  110   112     1
  110   113     1
  113   114     1
  113   115     1
  113   116     1
  116   117     1
  116   118     1
  116   119     1
  119   120     1
  119   121     1
  119   122     1
  122   123     1
  122   124     1
  122   125     1
  125   126     1
  125   127     1
  129   130     1
  129   131     1
  135   136     1
  135   137     1
  135   138     1

[ pairs ]
;  ai    aj funct            c0            c1            c2            c3
    1     4     1
    1     5     1
    1   135     1
    2     6     1
    2     7     1
    2     8     1
    2   136     1
    2   137     1
    2   138     1
    3     9     1
    3    10     1
    3    11     1
    4     6     1
    4     7     1
    4     8     1
    4   136     1
    4   137     1
    4   138     1
    4   139     1
    5    12     1
    5    13     1
    5    14     1
    5   136     1
    5   137     1
    5   138     1
    5   139     1
    6     9     1
    6    10     1
    6    11     1
    6   135     1
    7     9     1
    7    10     1
    7    11     1
    7   135     1
    8    15     1
    8    16     1
    8    17     1
    8   135     1
    9    12     1
    9    13     1
    9    14     1
   10    12     1
   10    13     1
   10    14     1
   11    18     1
   11    19     1
   12    15     1
   12    16     1
   12    17     1
   13    15     1
   13    16     1
   13    17     1
   14    20     1
   14   134     1
   15    18     1
   15    19     1
   16    18     1
   16    19     1
   17    21     1
   17    22     1
   17    23     1
   18    20     1
   18   134     1
   19    24     1
   20    25     1
   20    26     1
   20    27     1
   21    24     1
   21   134     1
   22    24     1
   22   134     1
   23    28     1
   23    29     1
   23    30     1
   23   134     1
   24    31     1
   25    28     1
   25    29     1
   25    30     1
   26    28     1
   26    29     1
   26    30     1
   27    32     1
   27    33     1
   27    34     1
   28    31     1
   29    31     1
   30    35     1
   30    36     1
   30    37     1
   31    38     1
   31    39     1
   32    35     1
   32    36     1
   32    37     1
   33    35     1
   33    36     1
   33    37     1
   34    40     1
   34   133     1
   35    38     1
   35    39     1
   36    38     1
   36    39     1
   37    41     1
   37    42     1
   37    43     1
   38    40     1
   38   133     1
   39    44     1
   40    45     1
   40    46     1
   40    47     1
   41    44     1
   41   133     1
   42    44     1
   42   133     1
   43    48     1
   43    49     1
   43    50     1
   43   133     1
   44    51     1
   45    48     1
   45    49     1
   45    50     1
   46    48     1
   46    49     1
   46    50     1
   47    52     1
   47    53     1
   47    54     1
   48    51     1
   49    51     1
   50    55     1
   50    56     1
   50    57     1
   51    58     1
   51    59     1
   52    55     1
   52    56     1
   52    57     1
   53    55     1
   53    56     1
   53    57     1
   54    60     1
   54   132     1
   55    58     1
   55    59     1
   56    58     1
   56    59     1
   57    61     1
   57    62     1
   57    63     1
   58    60     1
   58   132     1
   59    64     1
   59    65     1
   59    66     1
   60    67     1
   60    68     1
   60   129     1
   61    64     1
   61    65     1
   61    66     1
   61   132     1
   62    64     1
   62    65     1
   62    66     1
   62   132     1
   63    69     1
   63    70     1
   63   130     1
   63   131     1
   63   132     1
   64    67     1
   64    68     1
   64   129     1
   65    67     1
   65    68     1
   65   129     1
   66    71     1
   66   128     1
   67    69     1
   67    70     1
   67   130     1
   67   131     1
   68    72     1
   68    73     1
   68    74     1
   68   130     1
   68   131     1
   69    71     1
   69   128     1
   69   129     1
   70    75     1
   70    76     1
   70    77     1
   70   129     1
   71    78     1
   71    79     1
   71    80     1
   72    75     1
   72    76     1
   72    77     1
   72   128     1
   73    75     1
   73    76     1
   73    77     1
   73   128     1
   74    81     1
   74    82     1
   74    83     1
   74   128     1
   75    78     1
   75    79     1
   75    80     1
   76    78     1
   76    79     1
   76    80     1
   77    84     1
   77    85     1
   77    86     1
   78    81     1
   78    82     1
   78    83     1
   79    81     1
   79    82     1
   79    83     1
   80    87     1
   80    88     1
   80    89     1
   81    84     1
   81    85     1
   81    86     1
   82    84     1
   82    85     1
   82    86     1
   83    90     1
   83    91     1
   83    92     1
   84    87     1
   84    88     1
   84    89     1
   85    87     1
   85    88     1
   85    89     1
   86    93     1
   86    94     1
   86    95     1
   87    90     1
   87    91     1
   87    92     1
   88    90     1
   88    91     1
   88    92     1
   89    96     1
   89    97     1
   89    98     1
   90    93     1
   90    94     1
   90    95     1
   91    93     1
   91    94     1
   91    95     1
   92    99     1
   92   100     1
   92   101     1
   93    96     1
   93    97     1
   93    98     1
   94    96     1
   94    97     1
   94    98     1
   95   102     1
   95   103     1
   95   104     1
   96    99     1
   96   100     1
   96   101     1
   97    99     1
   97   100     1
   97   101     1
   98   105     1
   98   106     1
   98   107     1
   99   102     1
   99   103     1
   99   104     1
  100   102     1
  100   103     1
  100   104     1
  101   108     1
  101   109     1
  101   110     1
  102   105     1
  102   106     1
  102   107     1
  103   105     1
  103   106     1
  103   107     1
  104   111     1
  104   112     1
  104   113     1
  105   108     1
  105   109     1
  105   110     1
  106   108     1
  106   109     1
  106   110     1
  107   114     1
  107   115     1
  107   116     1
  108   111     1
  108   112     1
  108   113     1
  109   111     1
  109   112     1
  109   113     1
  110   117     1
  110   118     1
  110   119     1
  111   114     1
  111   115     1
  111   116     1
  112   114     1
  112   115     1
  112   116     1
  113   120     1
  113   121     1
  113   122     1
  114   117     1
  114   118     1
  114   119     1
  115   117     1
  115   118     1
  115   119     1
  116   123     1
  116   124     1
  116   125     1
  117   120     1
  117   121     1
  117   122     1
  118   120     1
  118   121     1
  118   122     1
  119   126     1
  119   127     1
  120   123     1
  120   124     1
  120   125     1
  121   123     1
  121   124     1
  121   125     1
  123   126     1
  123   127     1
  124   126     1
  124   127     1
  135   139     1

[ angles ]
;  ai    aj    ak funct            c0            c1            c2            c3
    1     2     3     5
    1     2   139     5
    3     2   139     5
    2     3     4     5
    2     3     5     5
    2     3   135     5
    4     3     5     5
    4     3   135     5
    5     3   135     5
    3     5     6     5
    3     5     7     5
    3     5     8     5
    6     5     7     5
    6     5     8     5
    7     5     8     5
    5     8     9     5
    5     8    10     5
    5     8    11     5
    9     8    10     5
    9     8    11     5
   10     8    11     5
    8    11    12     5
    8    11    13     5
    8    11    14     5
   12    11    13     5
   12    11    14     5
   13    11    14     5
   11    14    15     5
   11    14    16     5
   11    14    17     5
   15    14    16     5
   15    14    17     5
   16    14    17     5
   14    17    18     5
   14    17    19     5
   18    17    19     5
   17    19    20     5
   17    19   134     5
   20    19   134     5
   19    20    21     5
   19    20    22     5
   19    20    23     5
   21    20    22     5
   21    20    23     5
   22    20    23     5
   20    23    24     5
   23    24    25     5
   23    24    26     5
   23    24    27     5
   25    24    26     5
   25    24    27     5
   26    24    27     5
   24    27    28     5
   24    27    29     5
   24    27    30     5
   28    27    29     5
   28    27    30     5
   29    27    30     5
   27    30    31     5
   30    31    32     5
   30    31    33     5
   30    31    34     5
   32    31    33     5
   32    31    34     5
   33    31    34     5
   31    34    35     5
   31    34    36     5
   31    34    37     5
   35    34    36     5
   35    34    37     5
   36    34    37     5
   34    37    38     5
   34    37    39     5
   38    37    39     5
   37    39    40     5
   37    39   133     5
   40    39   133     5
   39    40    41     5
   39    40    42     5
   39    40    43     5
   41    40    42     5
   41    40    43     5
   42    40    43     5
   40    43    44     5
   43    44    45     5
   43    44    46     5
   43    44    47     5
   45    44    46     5
   45    44    47     5
   46    44    47     5
   44    47    48     5
   44    47    49     5
   44    47    50     5
   48    47    49     5
   48    47    50     5
   49    47    50     5
   47    50    51     5
   50    51    52     5
   50    51    53     5
   50    51    54     5
   52    51    53     5
   52    51    54     5
   53    51    54     5
   51    54    55     5
   51    54    56     5
   51    54    57     5
   55    54    56     5
   55    54    57     5
   56    54    57     5
   54    57    58     5
   54    57    59     5
   58    57    59     5
   57    59    60     5
   57    59   132     5
   60    59   132     5
   59    60    61     5
   59    60    62     5
   59    60    63     5
   61    60    62     5
   61    60    63     5
   62    60    63     5
   60    63    64     5
   60    63    65     5
   60    63    66     5
   64    63    65     5
   64    63    66     5
   65    63    66     5
   63    66    67     5
   63    66    68     5
   63    66   129     5
   67    66    68     5
   67    66   129     5
   68    66   129     5
   66    68    69     5
   66    68    70     5
   69    68    70     5
   68    70    71     5
   68    70   128     5
   71    70   128     5
   70    71    72     5
   70    71    73     5
   70    71    74     5
   72    71    73     5
   72    71    74     5
   73    71    74     5
   71    74    75     5
   71    74    76     5
   71    74    77     5
   75    74    76     5
   75    74    77     5
   76    74    77     5
   74    77    78     5
   74    77    79     5
   74    77    80     5
   78    77    79     5
   78    77    80     5
   79    77    80     5
   77    80    81     5
   77    80    82     5
   77    80    83     5
   81    80    82     5
   81    80    83     5
   82    80    83     5
   80    83    84     5
   80    83    85     5
   80    83    86     5
   84    83    85     5
   84    83    86     5
   85    83    86     5
   83    86    87     5
   83    86    88     5
   83    86    89     5
   87    86    88     5
   87    86    89     5
   88    86    89     5
   86    89    90     5
   86    89    91     5
   86    89    92     5
   90    89    91     5
   90    89    92     5
   91    89    92     5
   89    92    93     5
   89    92    94     5
   89    92    95     5
   93    92    94     5
   93    92    95     5
   94    92    95     5
   92    95    96     5
   92    95    97     5
   92    95    98     5
   96    95    97     5
   96    95    98     5
   97    95    98     5
   95    98    99     5
   95    98   100     5
   95    98   101     5
   99    98   100     5
   99    98   101     5
  100    98   101     5
   98   101   102     5
   98   101   103     5
   98   101   104     5
  102   101   103     5
  102   101   104     5
  103   101   104     5
  101   104   105     5
  101   104   106     5
  101   104   107     5
  105   104   106     5
  105   104   107     5
  106   104   107     5
  104   107   108     5
  104   107   109     5
  104   107   110     5
  108   107   109     5
  108   107   110     5
  109   107   110     5
  107   110   111     5
  107   110   112     5
  107   110   113     5
  111   110   112     5
  111   110   113     5
  112   110   113     5
  110   113   114     5
  110   113   115     5
  110   113   116     5
  114   113   115     5
  114   113   116     5
  115   113   116     5
  113   116   117     5
  113   116   118     5
  113   116   119     5
  117   116   118     5
  117   116   119     5
  118   116   119     5
  116   119   120     5
  116   119   121     5
  116   119   122     5
  120   119   121     5
  120   119   122     5
  121   119   122     5
  119   122   123     5
  119   122   124     5
  119   122   125     5
  123   122   124     5
  123   122   125     5
  124   122   125     5
  122   125   126     5
  122   125   127     5
  126   125   127     5
   66   129   130     5
   66   129   131     5
  130   129   131     5
    3   135   136     5
    3   135   137     5
    3   135   138     5
  136   135   137     5
  136   135   138     5
  137   135   138     5

[ dihedrals ]
;  ai    aj    ak    al funct            c0            c1            c2            c3            c4            c5
    1     2     3     4     9
    1     2     3     5     9
    1     2     3   135     9
  139     2     3     4     9
  139     2     3     5     9
  139     2     3   135     9
    2     3     5     6     9
    2     3     5     7     9
    2     3     5     8     9
    4     3     5     6     9
    4     3     5     7     9
    4     3     5     8     9
  135     3     5     6     9
  135     3     5     7     9
  135     3     5     8     9
    2     3   135   136     9
    2     3   135   137     9
    2     3   135   138     9
    4     3   135   136     9
    4     3   135   137     9
    4     3   135   138     9
    5     3   135   136     9
    5     3   135   137     9
    5     3   135   138     9
    3     5     8     9     9
    3     5     8    10     9
    3     5     8    11     9
    6     5     8     9     9
    6     5     8    10     9
    6     5     8    11     9
    7     5     8     9     9
    7     5     8    10     9
    7     5     8    11     9
    5     8    11    12     9
    5     8    11    13     9
    5     8    11    14     9
    9     8    11    12     9
    9     8    11    13     9
    9     8    11    14     9
   10     8    11    12     9
   10     8    11    13     9
   10     8    11    14     9
    8    11    14    15     9
    8    11    14    16     9
    8    11    14    17     9
   12    11    14    15     9
   12    11    14    16     9
   12    11    14    17     9
   13    11    14    15     9
   13    11    14    16     9
   13    11    14    17     9
   11    14    17    18     9
   11    14    17    19     9
   15    14    17    18     9
   15    14    17    19     9
   16    14    17    18     9
   16    14    17    19     9
   14    17    19    20     9
   14    17    19   134     9
   18    17    19    20     9
   18    17    19   134     9
   17    19    20    21     9
   17    19    20    22     9
   17    19    20    23     9
  134    19    20    21     9
  134    19    20    22     9
  134    19    20    23     9
   19    20    23    24     9
   21    20    23    24     9
   22    20    23    24     9
   20    23    24    25     9
   20    23    24    26     9
   20    23    24    27     9
   23    24    27    28     9
   23    24    27    29     9
   23    24    27    30     9
   25    24    27    28     9
   25    24    27    29     9
   25    24    27    30     9
   26    24    27    28     9
   26    24    27    29     9
   26    24    27    30     9
   24    27    30    31     9
   28    27    30    31     9
   29    27    30    31     9
   27    30    31    32     9
   27    30    31    33     9
   27    30    31    34     9
   30    31    34    35     9
   30    31    34    36     9
   30    31    34    37     9
   32    31    34    35     9
   32    31    34    36     9
   32    31    34    37     9
   33    31    34    35     9
   33    31    34    36     9
   33    31    34    37     9
   31    34    37    38     9
   31    34    37    39     9
   35    34    37    38     9
   35    34    37    39     9
   36    34    37    38     9
   36    34    37    39     9
   34    37    39    40     9
   34    37    39   133     9
   38    37    39    40     9
   38    37    39   133     9
   37    39    40    41     9
   37    39    40    42     9
   37    39    40    43     9
  133    39    40    41     9
  133    39    40    42     9
  133    39    40    43     9
   39    40    43    44     9
   41    40    43    44     9
   42    40    43    44     9
   40    43    44    45     9
   40    43    44    46     9
   40    43    44    47     9
   43    44    47    48     9
   43    44    47    49     9
   43    44    47    50     9
   45    44    47    48     9
   45    44    47    49     9
   45    44    47    50     9
   46    44    47    48     9
   46    44    47    49     9
   46    44    47    50     9
   44    47    50    51     9
   48    47    50    51     9
   49    47    50    51     9
   47    50    51    52     9
   47    50    51    53     9
   47    50    51    54     9
   50    51    54    55     9
   50    51    54    56     9
   50    51    54    57     9
   52    51    54    55     9
   52    51    54    56     9
   52    51    54    57     9
   53    51    54    55     9
   53    51    54    56     9
   53    51    54    57     9
   51    54    57    58     9
   51    54    57    59     9
   55    54    57    58     9
   55    54    57    59     9
   56    54    57    58     9
   56    54    57    59     9
   54    57    59    60     9
   54    57    59   132     9
   58    57    59    60     9
   58    57    59   132     9
   57    59    60    61     9
   57    59    60    62     9
   57    59    60    63     9
  132    59    60    61     9
  132    59    60    62     9
  132    59    60    63     9
   59    60    63    64     9
   59    60    63    65     9
   59    60    63    66     9
   61    60    63    64     9
   61    60    63    65     9
   61    60    63    66     9
   62    60    63    64     9
   62    60    63    65     9
   62    60    63    66     9
   60    63    66    67     9
   60    63    66    68     9
   60    63    66   129     9
   64    63    66    67     9
   64    63    66    68     9
   64    63    66   129     9
   65    63    66    67     9
   65    63    66    68     9
   65    63    66   129     9
   63    66    68    69     9
   63    66    68    70     9
   67    66    68    69     9
   67    66    68    70     9
  129    66    68    69     9
  129    66    68    70     9
   63    66   129   130     9
   63    66   129   131     9
   67    66   129   130     9
   67    66   129   131     9
   68    66   129   130     9
   68    66   129   131     9
   66    68    70    71     9
   66    68    70   128     9
   69    68    70    71     9
   69    68    70   128     9
   68    70    71    72     9
   68    70    71    73     9
   68    70    71    74     9
  128    70    71    72     9
  128    70    71    73     9
  128    70    71    74     9
   70    71    74    75     9
   70    71    74    76     9
   70    71    74    77     9
   72    71    74    75     9
   72    71    74    76     9
   72    71    74    77     9
   73    71    74    75     9
   73    71    74    76     9
   73    71    74    77     9
   71    74    77    78     9
   71    74    77    79     9
   71    74    77    80     9
   75    74    77    78     9
   75    74    77    79     9
   75    74    77    80     9
   76    74    77    78     9
   76    74    77    79     9
   76    74    77    80     9
   74    77    80    81     9
   74    77    80    82     9
   74    77    80    83     9
   78    77    80    81     9
   78    77    80    82     9
   78    77    80    83     9
   79    77    80    81     9
   79    77    80    82     9
   79    77    80    83     9
   77    80    83    84     9
   77    80    83    85     9
   77    80    83    86     9
   81    80    83    84     9
   81    80    83    85     9
   81    80    83    86     9
   82    80    83    84     9
   82    80    83    85     9
   82    80    83    86     9
   80    83    86    87     9
   80    83    86    88     9
   80    83    86    89     9
   84    83    86    87     9
   84    83    86    88     9
   84    83    86    89     9
   85    83    86    87     9
   85    83    86    88     9
   85    83    86    89     9
   83    86    89    90     9
   83    86    89    91     9
   83    86    89    92     9
   87    86    89    90     9
   87    86    89    91     9
   87    86    89    92     9
   88    86    89    90     9
   88    86    89    91     9
   88    86    89    92     9
   86    89    92    93     9
   86    89    92    94     9
   86    89    92    95     9
   90    89    92    93     9
   90    89    92    94     9
   90    89    92    95     9
   91    89    92    93     9
   91    89    92    94     9
   91    89    92    95     9
   89    92    95    96     9
   89    92    95    97     9
   89    92    95    98     9
   93    92    95    96     9
   93    92    95    97     9
   93    92    95    98     9
   94    92    95    96     9
   94    92    95    97     9
   94    92    95    98     9
   92    95    98    99     9
   92    95    98   100     9
   92    95    98   101     9
   96    95    98    99     9
   96    95    98   100     9
   96    95    98   101     9
   97    95    98    99     9
   97    95    98   100     9
   97    95    98   101     9
   95    98   101   102     9
   95    98   101   103     9
   95    98   101   104     9
   99    98   101   102     9
   99    98   101   103     9
   99    98   101   104     9
  100    98   101   102     9
  100    98   101   103     9
  100    98   101   104     9
   98   101   104   105     9
   98   101   104   106     9
   98   101   104   107     9
  102   101   104   105     9
  102   101   104   106     9
  102   101   104   107     9
  103   101   104   105     9
  103   101   104   106     9
  103   101   104   107     9
  101   104   107   108     9
  101   104   107   109     9
  101   104   107   110     9
  105   104   107   108     9
  105   104   107   109     9
  105   104   107   110     9
  106   104   107   108     9
  106   104   107   109     9
  106   104   107   110     9
  104   107   110   111     9
  104   107   110   112     9
  104   107   110   113     9
  108   107   110   111     9
  108   107   110   112     9
  108   107   110   113     9
  109   107   110   111     9
  109   107   110   112     9
  109   107   110   113     9
  107   110   113   114     9
  107   110   113   115     9
  107   110   113   116     9
  111   110   113   114     9
  111   110   113   115     9
  111   110   113   116     9
  112   110   113   114     9
  112   110   113   115     9
  112   110   113   116     9
  110   113   116   117     9
  110   113   116   118     9
  110   113   116   119     9
  114   113   116   117     9
  114   113   116   118     9
  114   113   116   119     9
  115   113   116   117     9
  115   113   116   118     9
  115   113   116   119     9
  113   116   119   120     9
  113   116   119   121     9
  113   116   119   122     9
  117   116   119   120     9
  117   116   119   121     9
  117   116   119   122     9
  118   116   119   120     9
  118   116   119   121     9
  118   116   119   122     9
  116   119   122   123     9
  116   119   122   124     9
  116   119   122   125     9
  120   119   122   123     9
  120   119   122   124     9
  120   119   122   125     9
  121   119   122   123     9
  121   119   122   124     9
  121   119   122   125     9
  119   122   125   126     9
  119   122   125   127     9
  123   122   125   126     9
  123   122   125   127     9
  124   122   125   126     9
  124   122   125   127     9

[ dihedrals ]
;  ai    aj    ak    al funct            c0            c1            c2            c3            c4            c5
    2   139     1     3     2
   19    20    17   134     2
   39    40    37   133     2
   59    60    57   132     2
   70    71    68   128     2
  125   127   126   122     2
  129   131   130    66     2



; Include Position restraint file
#ifdef POSRES
#include "posre_MTZP.itp"
#endif

; Include water topology
#include "./charmm36.ff/tip3p.itp"

#ifdef POSRES_WATER
; Position restraint for each water oxygen
[ position_restraints ]
;  i funct       fcx        fcy        fcz
   1    1       1000       1000       1000
#endif

; Include topology for ions
#include "./charmm36.ff/ions.itp"

[ system ]
; Name
    Ligand

[ molecules ]
; Compound        #mols
Other           1
