; Topology file generated by 
; CHARMM General Force Field (CGenFF) program version 4.0
; For use with CGenFF topology and parameter files version 5.0
; Generated on 2026-07-06 21:14:36 (user = unknown)
;
; Include forcefield parameters
#include "./charmm36.ff/forcefield.itp"
;
; Include ligand specific parameters
# include "./charmm36.ff/V6G_ffbonded.itp"
;
[ moleculetype ]
; Name            nrexcl
Other               3
;
[ atoms ]
;   nr       type  resnr residue  atom   cgnr     charge       mass  typeB    chargeB      massB
; residue   1 V6G rtp V6G  q -0.0
     1     CG2RC0      1    V6G     C1      1      0.087     12.011   ; qtot 0.087
     2     CG2R61      1    V6G     C2      2     -0.259     12.011   ; qtot -0.259
     3     CG2RC0      1    V6G     C3      3      0.185     12.011   ; qtot 0.185
     4     CG2R61      1    V6G     C4      4     -0.055     12.011   ; qtot -0.055
     5     CG2R61      1    V6G     C5      5     -0.173     12.011   ; qtot -0.173
     6     CG2R61      1    V6G     C6      6     -0.191     12.011   ; qtot -0.191
     7     CG2R51      1    V6G     C7      7     -0.164     12.011   ; qtot -0.164
     8     CG2R51      1    V6G     C8      8     -0.424     12.011   ; qtot -0.424
     9     CG3C31      1    V6G     C9      9      0.391     12.011   ; qtot 0.391
    10     CG3C31      1    V6G    C10     10     -0.186     12.011   ; qtot -0.186
    11     CG3C31      1    V6G    C11     11     -0.087     12.011   ; qtot -0.087
    12     CG2R53      1    V6G    C12     12     -0.115     12.011   ; qtot -0.115
    13     CG2R53      1    V6G    C13     13      0.932     12.011   ; qtot 0.932
    14      CG331      1    V6G    C14     14     -0.281     12.011   ; qtot -0.281
    15      CG2O1      1    V6G    C15     15      0.552     12.011   ; qtot 0.552
    16      CG321      1    V6G    C16     16     -0.059     12.011   ; qtot -0.059
    17      CG321      1    V6G    C17     17     -0.207     12.011   ; qtot -0.207
    18     CG2R52      1    V6G    C18     18      0.447     12.011   ; qtot 0.447
    19     CG2R51      1    V6G    C19     19     -0.519     12.011   ; qtot -0.519
    20      CG311      1    V6G    C20     20      0.298     12.011   ; qtot 0.298
    21      CG331      1    V6G    C21     21     -0.278     12.011   ; qtot -0.278
    22     CG2R57      1    V6G    C22     22      0.461     12.011   ; qtot 0.461
    23     CG2R61      1    V6G    C23     23      0.068     12.011   ; qtot 0.068
    24     CG2R61      1    V6G    C24     24     -0.151     12.011   ; qtot -0.151
    25     CG2R61      1    V6G    C25     25     -0.151     12.011   ; qtot -0.151
    26     CG2R61      1    V6G    C26     26      0.174     12.011   ; qtot 0.174
    27     CG2R66      1    V6G    C27     27     -0.021     12.011   ; qtot -0.021
    28     CG2R61      1    V6G    C28     28      0.174     12.011   ; qtot 0.174
    29     CG2R53      1    V6G    C29     29      0.446     12.011   ; qtot 0.446
    30     CG2R51      1    V6G    C30     30      0.047     12.011   ; qtot 0.047
    31     CG2R51      1    V6G    C31     31     -0.112     12.011   ; qtot -0.112
    32      CG331      1    V6G    C32     32     -0.287     12.011   ; qtot -0.287
    33      CG331      1    V6G    C33     33     -0.287     12.011   ; qtot -0.287
    34     CG2R61      1    V6G    C34     34      0.112     12.011   ; qtot 0.112
    35     CG2R66      1    V6G    C35     35      0.063     12.011   ; qtot 0.063
    36     CG2R61      1    V6G    C36     36     -0.262     12.011   ; qtot -0.262
    37     CG2R61      1    V6G    C37     37      -0.17     12.011   ; qtot -0.17
    38     CG2RC0      1    V6G    C38     38     -0.042     12.011   ; qtot -0.042
    39     CG2RC0      1    V6G    C39     39     -0.336     12.011   ; qtot -0.336
    40     CG2R52      1    V6G    C40     40       0.32     12.011   ; qtot 0.32
    41      CG331      1    V6G    C41     41     -0.158     12.011   ; qtot -0.158
    42      CG321      1    V6G    C42     42     -0.232     12.011   ; qtot -0.232
    43      CG321      1    V6G    C43     43      0.031     12.011   ; qtot 0.031
    44      CG301      1    V6G    C44     44      0.175     12.011   ; qtot 0.175
    45      CG321      1    V6G    C45     45     -0.124     12.011   ; qtot -0.124
    46      CG311      1    V6G    C46     46     -0.159     12.011   ; qtot -0.159
    47      CG331      1    V6G    C47     47     -0.263     12.011   ; qtot -0.263
    48      CG331      1    V6G    C48     48     -0.263     12.011   ; qtot -0.263
    49       FGR1      1    V6G    F49     49     -0.205     18.998   ; qtot -0.205
    50       FGR1      1    V6G    F50     50     -0.193     18.998   ; qtot -0.193
    51     NG2R51      1    V6G    N51     51      0.082     14.007   ; qtot 0.082
    52     NG2R50      1    V6G    N52     52     -0.427     14.007   ; qtot -0.427
    53     NG2R51      1    V6G    N53     53     -0.282     14.007   ; qtot -0.282
    54      NG2S0      1    V6G    N54     54     -0.283     14.007   ; qtot -0.283
    55     NG2R50      1    V6G    N55     55     -0.474     14.007   ; qtot -0.474
    56     NG2R51      1    V6G    N56     56      0.139     14.007   ; qtot 0.139
    57     NG2R57      1    V6G    N57     57     -0.298     14.007   ; qtot -0.298
    58     NG2R51      1    V6G    N58     58      -0.08     14.007   ; qtot -0.08
    59     NG2R51      1    V6G    N59     59      0.436     14.007   ; qtot 0.436
    60     NG2R50      1    V6G    N60     60     -0.445     14.007   ; qtot -0.445
    61     OG2R50      1    V6G    O61     61     -0.243    15.9994   ; qtot -0.243
    62      OG2D1      1    V6G    O62     62     -0.499    15.9994   ; qtot -0.499
    63      OG2D1      1    V6G    O63     63     -0.487    15.9994   ; qtot -0.487
    64      OG2D1      1    V6G    O64     64     -0.499    15.9994   ; qtot -0.499
    65     OG3C61      1    V6G    O65     65      -0.36    15.9994   ; qtot -0.36
    66      HGR61      1    V6G    H66     66      0.197      1.008   ; qtot 0.197
    67      HGR61      1    V6G    H67     67      0.134      1.008   ; qtot 0.134
    68      HGR61      1    V6G    H68     68      0.184      1.008   ; qtot 0.184
    69      HGR51      1    V6G    H69     69       0.22      1.008   ; qtot 0.22
    70       HGA2      1    V6G    H70     70       0.09      1.008   ; qtot 0.09
    71       HGA2      1    V6G    H71     71       0.09      1.008   ; qtot 0.09
    72       HGA1      1    V6G    H72     72       0.09      1.008   ; qtot 0.09
    73       HGA3      1    V6G    H73     73       0.09      1.008   ; qtot 0.09
    74       HGA3      1    V6G    H74     74       0.09      1.008   ; qtot 0.09
    75       HGA3      1    V6G    H75     75       0.09      1.008   ; qtot 0.09
    76       HGA2      1    V6G    H76     76       0.09      1.008   ; qtot 0.09
    77       HGA2      1    V6G    H77     77       0.09      1.008   ; qtot 0.09
    78       HGA2      1    V6G    H78     78       0.09      1.008   ; qtot 0.09
    79       HGA2      1    V6G    H79     79       0.09      1.008   ; qtot 0.09
    80       HGA1      1    V6G    H80     80       0.09      1.008   ; qtot 0.09
    81       HGA3      1    V6G    H81     81       0.09      1.008   ; qtot 0.09
    82       HGA3      1    V6G    H82     82       0.09      1.008   ; qtot 0.09
    83       HGA3      1    V6G    H83     83       0.09      1.008   ; qtot 0.09
    84      HGR61      1    V6G    H84     84      0.116      1.008   ; qtot 0.116
    85      HGR61      1    V6G    H85     85      0.116      1.008   ; qtot 0.116
    86      HGR52      1    V6G    H86     86      0.101      1.008   ; qtot 0.101
    87      HGR52      1    V6G    H87     87      0.124      1.008   ; qtot 0.124
    88       HGA3      1    V6G    H88     88       0.09      1.008   ; qtot 0.09
    89       HGA3      1    V6G    H89     89       0.09      1.008   ; qtot 0.09
    90       HGA3      1    V6G    H90     90       0.09      1.008   ; qtot 0.09
    91       HGA3      1    V6G    H91     91       0.09      1.008   ; qtot 0.09
    92       HGA3      1    V6G    H92     92       0.09      1.008   ; qtot 0.09
    93       HGA3      1    V6G    H93     93       0.09      1.008   ; qtot 0.09
    94      HGR61      1    V6G    H94     94      0.134      1.008   ; qtot 0.134
    95      HGR61      1    V6G    H95     95      0.184      1.008   ; qtot 0.184
    96      HGR52      1    V6G    H96     96      0.087      1.008   ; qtot 0.087
    97       HGA3      1    V6G    H97     97       0.09      1.008   ; qtot 0.09
    98       HGA3      1    V6G    H98     98       0.09      1.008   ; qtot 0.09
    99       HGA3      1    V6G    H99     99       0.09      1.008   ; qtot 0.09
   100       HGA2      1    V6G   H100    100       0.09      1.008   ; qtot 0.09
   101       HGA2      1    V6G   H101    101       0.09      1.008   ; qtot 0.09
   102       HGA2      1    V6G   H102    102       0.09      1.008   ; qtot 0.09
   103       HGA2      1    V6G   H103    103       0.09      1.008   ; qtot 0.09
   104       HGA2      1    V6G   H104    104       0.09      1.008   ; qtot 0.09
   105       HGA2      1    V6G   H105    105       0.09      1.008   ; qtot 0.09
   106       HGA1      1    V6G   H106    106       0.09      1.008   ; qtot 0.09
   107       HGA3      1    V6G   H107    107       0.09      1.008   ; qtot 0.09
   108       HGA3      1    V6G   H108    108       0.09      1.008   ; qtot 0.09
   109       HGA3      1    V6G   H109    109       0.09      1.008   ; qtot 0.09
   110       HGA3      1    V6G   H110    110       0.09      1.008   ; qtot 0.09
   111       HGA3      1    V6G   H111    111       0.09      1.008   ; qtot 0.09
   112       HGA3      1    V6G   H112    112       0.09      1.008   ; qtot 0.09
   113       HGP1      1    V6G   H113    113      0.334      1.008   ; qtot 0.334

[ bonds ]
;  ai    aj funct            c0            c1            c2            c3
    1     2     1
    2     4     1
    2    66     1
    3     6     1
    3     1     1
    4    46     1
    5     4     1
    5    67     1
    6     5     1
    6    68     1
    7     1     1
    7    69     1
    8     7     1
    9    12     1
    9    51     1
   10    11     1
   10     9     1
   10    70     1
   10    71     1
   11     9     1
   11    72     1
   12    53     1
   13    53     1
   13    62     1
   14    11     1
   14    73     1
   14    74     1
   14    75     1
   15    54     1
   15     8     1
   16    54     1
   16    76     1
   16    77     1
   17    16     1
   17    18     1
   17    78     1
   17    79     1
   18    19     1
   19    22     1
   19    20     1
   20    21     1
   20    80     1
   21    81     1
   21    82     1
   21    83     1
   22    57     1
   23    25     1
   24    23     1
   24    84     1
   25    85     1
   26    25     1
   26    33     1
   27    26     1
   28    24     1
   28    27     1
   29    58     1
   30    58     1
   30    86     1
   31    30     1
   31    87     1
   32    28     1
   32    88     1
   32    89     1
   32    90     1
   33    91     1
   33    92     1
   33    93     1
   34    35     1
   34    36     1
   35    39     1
   36    37     1
   36    94     1
   37    38     1
   37    95     1
   38    59     1
   39    40     1
   39    38     1
   40    60     1
   40    96     1
   41    97     1
   41    98     1
   41    99     1
   42    46     1
   42    43     1
   42   100     1
   42   101     1
   43    65     1
   43   102     1
   43   103     1
   44    65     1
   44    48     1
   44    47     1
   45    44     1
   45   104     1
   45   105     1
   46    45     1
   46   106     1
   47   107     1
   47   108     1
   47   109     1
   48   110     1
   48   111     1
   48   112     1
   49    27     1
   50    35     1
   51     8     1
   51     3     1
   52    61     1
   52    12     1
   53   113     1
   54    20     1
   55    18     1
   55    56     1
   56    23     1
   56    22     1
   57    31     1
   57    29     1
   58    34     1
   59    41     1
   60    59     1
   61    13     1
   63    15     1
   64    29     1

[ pairs ]
;  ai    aj funct            c0            c1            c2            c3
    1     5     1
    1     9     1
    1    15     1
    1    46     1
    1    68     1
    2     6     1
    2     8     1
    2    42     1
    2    45     1
    2    51     1
    2    67     1
    2    69     1
    2   106     1
    3     4     1
    3    10     1
    3    11     1
    3    12     1
    3    15     1
    3    66     1
    3    67     1
    3    69     1
    4     7     1
    4    43     1
    4    44     1
    4    68     1
    4   100     1
    4   101     1
    4   104     1
    4   105     1
    5    42     1
    5    45     1
    5    51     1
    5    66     1
    5   106     1
    6     7     1
    6     8     1
    6     9     1
    6    46     1
    7     9     1
    7    54     1
    7    63     1
    7    66     1
    8    10     1
    8    11     1
    8    12     1
    8    16     1
    8    20     1
    9    13     1
    9    15     1
    9    61     1
    9    73     1
    9    74     1
    9    75     1
    9   113     1
   10    52     1
   10    53     1
   10    73     1
   10    74     1
   10    75     1
   11    52     1
   11    53     1
   12    14     1
   12    62     1
   12    70     1
   12    71     1
   12    72     1
   14    51     1
   14    70     1
   14    71     1
   15    17     1
   15    19     1
   15    21     1
   15    69     1
   15    76     1
   15    77     1
   15    80     1
   16    19     1
   16    21     1
   16    55     1
   16    63     1
   16    80     1
   17    20     1
   17    22     1
   17    56     1
   18    21     1
   18    23     1
   18    54     1
   18    57     1
   18    76     1
   18    77     1
   18    80     1
   19    23     1
   19    29     1
   19    31     1
   19    78     1
   19    79     1
   19    81     1
   19    82     1
   19    83     1
   20    55     1
   20    56     1
   20    57     1
   20    63     1
   20    76     1
   20    77     1
   21    22     1
   22    24     1
   22    25     1
   22    30     1
   22    54     1
   22    58     1
   22    64     1
   22    80     1
   22    87     1
   23    27     1
   23    32     1
   23    33     1
   23    57     1
   24    26     1
   24    49     1
   24    55     1
   24    85     1
   24    88     1
   24    89     1
   24    90     1
   25    28     1
   25    49     1
   25    55     1
   25    84     1
   25    91     1
   25    92     1
   25    93     1
   26    32     1
   26    56     1
   27    84     1
   27    85     1
   27    88     1
   27    89     1
   27    90     1
   27    91     1
   27    92     1
   27    93     1
   28    33     1
   28    56     1
   29    35     1
   29    36     1
   29    56     1
   29    86     1
   29    87     1
   30    35     1
   30    36     1
   30    64     1
   31    34     1
   31    56     1
   31    64     1
   32    49     1
   32    84     1
   33    49     1
   33    85     1
   34    38     1
   34    40     1
   34    57     1
   34    64     1
   34    86     1
   34    95     1
   35    37     1
   35    59     1
   35    60     1
   35    94     1
   35    96     1
   36    39     1
   36    50     1
   36    59     1
   37    40     1
   37    41     1
   37    58     1
   37    60     1
   38    50     1
   38    94     1
   38    96     1
   38    97     1
   38    98     1
   38    99     1
   39    41     1
   39    58     1
   39    95     1
   40    41     1
   40    50     1
   42    44     1
   42   104     1
   42   105     1
   43    45     1
   43    47     1
   43    48     1
   43   106     1
   44   102     1
   44   103     1
   44   106     1
   45   100     1
   45   101     1
   45   107     1
   45   108     1
   45   109     1
   45   110     1
   45   111     1
   45   112     1
   46    47     1
   46    48     1
   46    65     1
   46    66     1
   46    67     1
   46   102     1
   46   103     1
   47   104     1
   47   105     1
   47   110     1
   47   111     1
   47   112     1
   48   104     1
   48   105     1
   48   107     1
   48   108     1
   48   109     1
   50    58     1
   51    52     1
   51    53     1
   51    54     1
   51    63     1
   51    68     1
   51    69     1
   51    70     1
   51    71     1
   51    72     1
   52    62     1
   52   113     1
   54    78     1
   54    79     1
   54    81     1
   54    82     1
   54    83     1
   55    57     1
   55    78     1
   55    79     1
   56    84     1
   56    85     1
   57    86     1
   58    87     1
   58    94     1
   59    95     1
   59    96     1
   60    97     1
   60    98     1
   60    99     1
   61   113     1
   62   113     1
   65   100     1
   65   101     1
   65   104     1
   65   105     1
   65   107     1
   65   108     1
   65   109     1
   65   110     1
   65   111     1
   65   112     1
   67    68     1
   70    72     1
   71    72     1
   72    73     1
   72    74     1
   72    75     1
   76    78     1
   76    79     1
   77    78     1
   77    79     1
   80    81     1
   80    82     1
   80    83     1
   86    87     1
   94    95     1
  100   102     1
  100   103     1
  100   106     1
  101   102     1
  101   103     1
  101   106     1
  104   106     1
  105   106     1

[ angles ]
;  ai    aj    ak funct            c0            c1            c2            c3
    2     1     3     5
    2     1     7     5
    3     1     7     5
    1     2     4     5
    1     2    66     5
    4     2    66     5
    6     3     1     5
    6     3    51     5
    1     3    51     5
    2     4    46     5
    2     4     5     5
   46     4     5     5
    4     5    67     5
    4     5     6     5
   67     5     6     5
    3     6     5     5
    3     6    68     5
    5     6    68     5
    1     7    69     5
    1     7     8     5
   69     7     8     5
    7     8    15     5
    7     8    51     5
   15     8    51     5
   12     9    51     5
   12     9    10     5
   12     9    11     5
   51     9    10     5
   51     9    11     5
   10     9    11     5
   11    10     9     5
   11    10    70     5
   11    10    71     5
    9    10    70     5
    9    10    71     5
   70    10    71     5
   10    11     9     5
   10    11    72     5
   10    11    14     5
    9    11    72     5
    9    11    14     5
   72    11    14     5
    9    12    53     5
    9    12    52     5
   53    12    52     5
   53    13    62     5
   53    13    61     5
   62    13    61     5
   11    14    73     5
   11    14    74     5
   11    14    75     5
   73    14    74     5
   73    14    75     5
   74    14    75     5
   54    15     8     5
   54    15    63     5
    8    15    63     5
   54    16    76     5
   54    16    77     5
   54    16    17     5
   76    16    77     5
   76    16    17     5
   77    16    17     5
   16    17    18     5
   16    17    78     5
   16    17    79     5
   18    17    78     5
   18    17    79     5
   78    17    79     5
   17    18    19     5
   17    18    55     5
   19    18    55     5
   18    19    22     5
   18    19    20     5
   22    19    20     5
   19    20    21     5
   19    20    80     5
   19    20    54     5
   21    20    80     5
   21    20    54     5
   80    20    54     5
   20    21    81     5
   20    21    82     5
   20    21    83     5
   81    21    82     5
   81    21    83     5
   82    21    83     5
   19    22    57     5
   19    22    56     5
   57    22    56     5
   25    23    24     5
   25    23    56     5
   24    23    56     5
   23    24    84     5
   23    24    28     5
   84    24    28     5
   23    25    85     5
   23    25    26     5
   85    25    26     5
   25    26    33     5
   25    26    27     5
   33    26    27     5
   26    27    28     5
   26    27    49     5
   28    27    49     5
   24    28    27     5
   24    28    32     5
   27    28    32     5
   58    29    57     5
   58    29    64     5
   57    29    64     5
   58    30    86     5
   58    30    31     5
   86    30    31     5
   30    31    87     5
   30    31    57     5
   87    31    57     5
   28    32    88     5
   28    32    89     5
   28    32    90     5
   88    32    89     5
   88    32    90     5
   89    32    90     5
   26    33    91     5
   26    33    92     5
   26    33    93     5
   91    33    92     5
   91    33    93     5
   92    33    93     5
   35    34    36     5
   35    34    58     5
   36    34    58     5
   34    35    39     5
   34    35    50     5
   39    35    50     5
   34    36    37     5
   34    36    94     5
   37    36    94     5
   36    37    38     5
   36    37    95     5
   38    37    95     5
   37    38    59     5
   37    38    39     5
   59    38    39     5
   35    39    40     5
   35    39    38     5
   40    39    38     5
   39    40    60     5
   39    40    96     5
   60    40    96     5
   97    41    98     5
   97    41    99     5
   97    41    59     5
   98    41    99     5
   98    41    59     5
   99    41    59     5
   46    42    43     5
   46    42   100     5
   46    42   101     5
   43    42   100     5
   43    42   101     5
  100    42   101     5
   42    43    65     5
   42    43   102     5
   42    43   103     5
   65    43   102     5
   65    43   103     5
  102    43   103     5
   65    44    48     5
   65    44    47     5
   65    44    45     5
   48    44    47     5
   48    44    45     5
   47    44    45     5
   44    45   104     5
   44    45   105     5
   44    45    46     5
  104    45   105     5
  104    45    46     5
  105    45    46     5
    4    46    42     5
    4    46    45     5
    4    46   106     5
   42    46    45     5
   42    46   106     5
   45    46   106     5
   44    47   107     5
   44    47   108     5
   44    47   109     5
  107    47   108     5
  107    47   109     5
  108    47   109     5
   44    48   110     5
   44    48   111     5
   44    48   112     5
  110    48   111     5
  110    48   112     5
  111    48   112     5
    9    51     8     5
    9    51     3     5
    8    51     3     5
   61    52    12     5
   12    53    13     5
   12    53   113     5
   13    53   113     5
   15    54    16     5
   15    54    20     5
   16    54    20     5
   18    55    56     5
   55    56    23     5
   55    56    22     5
   23    56    22     5
   22    57    31     5
   22    57    29     5
   31    57    29     5
   29    58    30     5
   29    58    34     5
   30    58    34     5
   38    59    41     5
   38    59    60     5
   41    59    60     5
   40    60    59     5
   52    61    13     5
   43    65    44     5

[ dihedrals ]
;  ai    aj    ak    al funct            c0            c1            c2            c3            c4            c5
    3     1     2     4     9
    3     1     2    66     9
    7     1     2     4     9
    7     1     2    66     9
    1     2     4    46     9
    1     2     4     5     9
   66     2     4    46     9
   66     2     4     5     9
    1     3     6     5     9
    1     3     6    68     9
   51     3     6     5     9
   51     3     6    68     9
    6     3     1     2     9
    6     3     1     7     9
   51     3     1     2     9
   51     3     1     7     9
    2     4    46    42     9
    2     4    46    45     9
    2     4    46   106     9
    5     4    46    42     9
    5     4    46    45     9
    5     4    46   106     9
   67     5     4     2     9
   67     5     4    46     9
    6     5     4     2     9
    6     5     4    46     9
    3     6     5     4     9
    3     6     5    67     9
   68     6     5     4     9
   68     6     5    67     9
   69     7     1     2     9
   69     7     1     3     9
    8     7     1     2     9
    8     7     1     3     9
   15     8     7     1     9
   15     8     7    69     9
   51     8     7     1     9
   51     8     7    69     9
   51     9    12    53     9
   51     9    12    52     9
   10     9    12    53     9
   10     9    12    52     9
   11     9    12    53     9
   11     9    12    52     9
   12     9    51     8     9
   12     9    51     3     9
   10     9    51     8     9
   10     9    51     3     9
   11     9    51     8     9
   11     9    51     3     9
    9    10    11    72     9
    9    10    11    14     9
   70    10    11     9     9
   70    10    11    72     9
   70    10    11    14     9
   71    10    11     9     9
   71    10    11    72     9
   71    10    11    14     9
   11    10     9    12     9
   11    10     9    51     9
   70    10     9    12     9
   70    10     9    51     9
   70    10     9    11     9
   71    10     9    12     9
   71    10     9    51     9
   71    10     9    11     9
   10    11     9    12     9
   10    11     9    51     9
   72    11     9    12     9
   72    11     9    51     9
   72    11     9    10     9
   14    11     9    12     9
   14    11     9    51     9
   14    11     9    10     9
    9    12    53    13     9
    9    12    53   113     9
   52    12    53    13     9
   52    12    53   113     9
   62    13    53    12     9
   62    13    53   113     9
   61    13    53    12     9
   61    13    53   113     9
   73    14    11    10     9
   73    14    11     9     9
   73    14    11    72     9
   74    14    11    10     9
   74    14    11     9     9
   74    14    11    72     9
   75    14    11    10     9
   75    14    11     9     9
   75    14    11    72     9
    8    15    54    16     9
    8    15    54    20     9
   63    15    54    16     9
   63    15    54    20     9
   54    15     8     7     9
   54    15     8    51     9
   63    15     8     7     9
   63    15     8    51     9
   76    16    54    15     9
   76    16    54    20     9
   77    16    54    15     9
   77    16    54    20     9
   17    16    54    15     9
   17    16    54    20     9
   18    17    16    54     9
   18    17    16    76     9
   18    17    16    77     9
   78    17    16    54     9
   78    17    16    76     9
   78    17    16    77     9
   79    17    16    54     9
   79    17    16    76     9
   79    17    16    77     9
   16    17    18    19     9
   16    17    18    55     9
   78    17    18    19     9
   78    17    18    55     9
   79    17    18    19     9
   79    17    18    55     9
   17    18    19    22     9
   17    18    19    20     9
   55    18    19    22     9
   55    18    19    20     9
   18    19    22    57     9
   18    19    22    56     9
   20    19    22    57     9
   20    19    22    56     9
   18    19    20    21     9
   18    19    20    80     9
   18    19    20    54     9
   22    19    20    21     9
   22    19    20    80     9
   22    19    20    54     9
   19    20    21    81     9
   19    20    21    82     9
   19    20    21    83     9
   80    20    21    81     9
   80    20    21    82     9
   80    20    21    83     9
   54    20    21    81     9
   54    20    21    82     9
   54    20    21    83     9
   19    22    57    31     9
   19    22    57    29     9
   56    22    57    31     9
   56    22    57    29     9
   24    23    25    85     9
   24    23    25    26     9
   56    23    25    85     9
   56    23    25    26     9
   84    24    23    25     9
   84    24    23    56     9
   28    24    23    25     9
   28    24    23    56     9
   33    26    25    23     9
   33    26    25    85     9
   27    26    25    23     9
   27    26    25    85     9
   25    26    33    91     9
   25    26    33    92     9
   25    26    33    93     9
   27    26    33    91     9
   27    26    33    92     9
   27    26    33    93     9
   28    27    26    25     9
   28    27    26    33     9
   49    27    26    25     9
   49    27    26    33     9
   27    28    24    23     9
   27    28    24    84     9
   32    28    24    23     9
   32    28    24    84     9
   24    28    27    26     9
   24    28    27    49     9
   32    28    27    26     9
   32    28    27    49     9
   57    29    58    30     9
   57    29    58    34     9
   64    29    58    30     9
   64    29    58    34     9
   86    30    58    29     9
   86    30    58    34     9
   31    30    58    29     9
   31    30    58    34     9
   87    31    30    58     9
   87    31    30    86     9
   57    31    30    58     9
   57    31    30    86     9
   88    32    28    24     9
   88    32    28    27     9
   89    32    28    24     9
   89    32    28    27     9
   90    32    28    24     9
   90    32    28    27     9
   36    34    35    39     9
   36    34    35    50     9
   58    34    35    39     9
   58    34    35    50     9
   35    34    36    37     9
   35    34    36    94     9
   58    34    36    37     9
   58    34    36    94     9
   34    35    39    40     9
   34    35    39    38     9
   50    35    39    40     9
   50    35    39    38     9
   34    36    37    38     9
   34    36    37    95     9
   94    36    37    38     9
   94    36    37    95     9
   36    37    38    59     9
   36    37    38    39     9
   95    37    38    59     9
   95    37    38    39     9
   37    38    59    41     9
   37    38    59    60     9
   39    38    59    41     9
   39    38    59    60     9
   35    39    40    60     9
   35    39    40    96     9
   38    39    40    60     9
   38    39    40    96     9
   35    39    38    37     9
   35    39    38    59     9
   40    39    38    37     9
   40    39    38    59     9
   39    40    60    59     9
   96    40    60    59     9
   43    42    46     4     9
   43    42    46    45     9
   43    42    46   106     9
  100    42    46     4     9
  100    42    46    45     9
  100    42    46   106     9
  101    42    46     4     9
  101    42    46    45     9
  101    42    46   106     9
   46    42    43    65     9
   46    42    43   102     9
   46    42    43   103     9
  100    42    43    65     9
  100    42    43   102     9
  100    42    43   103     9
  101    42    43    65     9
  101    42    43   102     9
  101    42    43   103     9
   42    43    65    44     9
  102    43    65    44     9
  103    43    65    44     9
   48    44    65    43     9
   47    44    65    43     9
   45    44    65    43     9
   65    44    48   110     9
   65    44    48   111     9
   65    44    48   112     9
   47    44    48   110     9
   47    44    48   111     9
   47    44    48   112     9
   45    44    48   110     9
   45    44    48   111     9
   45    44    48   112     9
   65    44    47   107     9
   65    44    47   108     9
   65    44    47   109     9
   48    44    47   107     9
   48    44    47   108     9
   48    44    47   109     9
   45    44    47   107     9
   45    44    47   108     9
   45    44    47   109     9
  104    45    44    65     9
  104    45    44    48     9
  104    45    44    47     9
  105    45    44    65     9
  105    45    44    48     9
  105    45    44    47     9
   46    45    44    65     9
   46    45    44    48     9
   46    45    44    47     9
    4    46    45    44     9
    4    46    45   104     9
    4    46    45   105     9
   42    46    45    44     9
   42    46    45   104     9
   42    46    45   105     9
  106    46    45    44     9
  106    46    45   104     9
  106    46    45   105     9
    9    51     8     7     9
    9    51     8    15     9
    3    51     8     7     9
    3    51     8    15     9
    9    51     3     6     9
    9    51     3     1     9
    8    51     3     6     9
    8    51     3     1     9
   12    52    61    13     9
   61    52    12     9     9
   61    52    12    53     9
   15    54    20    19     9
   15    54    20    21     9
   15    54    20    80     9
   16    54    20    19     9
   16    54    20    21     9
   16    54    20    80     9
   56    55    18    17     9
   56    55    18    19     9
   18    55    56    23     9
   18    55    56    22     9
   55    56    23    25     9
   55    56    23    24     9
   22    56    23    25     9
   22    56    23    24     9
   55    56    22    19     9
   55    56    22    57     9
   23    56    22    19     9
   23    56    22    57     9
   22    57    31    30     9
   22    57    31    87     9
   29    57    31    30     9
   29    57    31    87     9
   22    57    29    58     9
   22    57    29    64     9
   31    57    29    58     9
   31    57    29    64     9
   29    58    34    35     9
   29    58    34    36     9
   30    58    34    35     9
   30    58    34    36     9
   38    59    41    97     9
   38    59    41    98     9
   38    59    41    99     9
   60    59    41    97     9
   60    59    41    98     9
   60    59    41    99     9
   40    60    59    38     9
   40    60    59    41     9
   52    61    13    53     9
   52    61    13    62     9

[ dihedrals ]
;  ai    aj    ak    al funct            c0            c1            c2            c3            c4            c5
   13    53    62    61     2
   15     8    54    63     2
   29    58    57    64     2



; Include Position restraint file
#ifdef POSRES
#include "posre_V6G.itp"
#endif

; Include water topology
#include "./charmm36.ff/tip3p.itp"

#ifdef POSRES_WATER
; Position restraint for each water oxygen
[ position_restraints ]
;  i funct       fcx        fcy        fcz
   1    1       1000       1000       1000
#endif

; Include topology for ions
#include "./charmm36.ff/ions.itp"

[ system ]
; Name
    Ligand

[ molecules ]
; Compound        #mols
Other           1
