title		= NPT EQ  
; Run parameters
integrator	= md		; leap-frog integrator
nsteps		= 5000000
dt		    = 0.002		; 2 fs
; Output control
nstxout		= 50000		; save coordinates every 0.2 ps
nstvout		= 50000		; save velocities every 0.2 ps
nstenergy	= 50000		; save energies every 0.2 ps
nstlog		= 50000		; update log file every 0.2 ps
nstxtcout	= 5000		; xtc compressed trajectory output every 2 ps
xtc-grps	= Protein
; Bond parameters
continuation	= no		    ; Restarting after NVT 
constraint_algorithm = lincs	; holonomic constraints 
constraints	= h-bonds	        ; all bonds (even heavy atom-H bonds) constrained
lincs_iter	= 1		            ; accuracy of LINCS
lincs_order	= 4		            ; also related to accuracy
; Neighborsearching
ns_type		= grid		; search neighboring grid cels
;nstlist		= 12		    ; 10 fs
nstlist		= 5		    ; 10 fs
rlist		= 1.2		; short-range neighborlist cutoff (in nm)
rcoulomb	= 1.2		; short-range electrostatic cutoff (in nm)
rvdw		= 1.2		; short-range van der Waals cutoff (in nm)
; Electrostatics
coulombtype	= PME		; Particle Mesh Ewald for long-range electrostatics
pme_order	= 4		    ; cubic interpolation
fourierspacing	= 0.16		; grid spacing for FFT
; Temperature coupling is on
tcoupl		= Nose-Hoover		    ; More accurate thermostat
tc-grps		= Protein  SOL_NA ; three coupling groups - more accurate
tau_t		= 0.5		0.5	        ; time constant, in ps
ref_t		= 310 		310	        ; reference temperature, one for each group, in K
; Pressure coupling is on
pcoupl		= Parrinello-Rahman	    ; Pressure coupling on in NPT
pcoupltype	= isotropic		    ; uniform scaling of x-y box vectors, independent z
tau_p		= 5.0			        ; time constant, in ps
ref_p		= 1.0	1.0		        ; reference pressure, x-y, z (in bar)
refcoord-scaling = com
compressibility = 4.5e-5	4.5e-5	; isothermal compressibility, bar^-1
; Periodic boundary conditions
pbc		    = xyz		; 3-D PBC
; Dispersion correction
DispCorr	= EnerPres	; account for cut-off vdW scheme
; Velocity generation
gen_vel		= no		; Velocity generation is off
; COM motion removal
; These options remove motion of the protein/bilayer relative to the solvent/ions
nstcomm         = 1
comm-mode       = Linear
comm-grps	= Protein SOL_NA

; Pull code
pull                    = yes
pull_ngroups            = 2
pull_ncoords            = 1
pull_group1_name        = gloop
pull_group2_name        = aloop
pull_coord1_type        = umbrella      ; harmonic biasing force
pull_coord1_geometry    = distance      ; simple distance increase
pull_coord1_groups      = 1 2
pull_coord1_rate        = 0.0          ; 0.01 nm per ps = 10 nm per ns
pull_coord1_k           = 1000          ; kJ mol^-1 nm^-2
pull_coord1_start       = yes           ; define initial COM distance > 0
pull-nstxout		= 1000
pull-nstfout		= 1000

