;;
;; Generated by CHARMM-GUI FF-Converter
;;
;; Correspondance:
;; jul316@lehigh.edu or wonpil@lehigh.edu
;;
;; GROMACS topology file for 7V7
;;


[ moleculetype ]
; name	nrexcl
7V7	     3

[ atoms ]
; nr	type	resnr	residu	atom	cgnr	charge	mass
     1      OG2D1    501      7V7      O      1    -0.450000    15.9994   ; qtot -0.450
     2      CG2O1    501      7V7     C1      2     0.637000    12.0110   ; qtot  0.187
     3      CG321    501      7V7     C2      3    -0.123000    12.0110   ; qtot  0.064
     4      CG331    501      7V7     C3      4    -0.270000    12.0110   ; qtot -0.206
     5      NG2S0    501      7V7     N1      5    -0.444000    14.0070   ; qtot -0.650
     6      CG311    501      7V7     C4      6    -0.203000    12.0110   ; qtot -0.853
     7      CG321    501      7V7     C5      7    -0.092000    12.0110   ; qtot -0.945
     8      CG324    501      7V7     C6      8     0.183000    12.0110   ; qtot -0.762
     9      NG3P1    501      7V7     N2      9    -0.399000    14.0070   ; qtot -1.161
    10      CG324    501      7V7     C7     10     0.183000    12.0110   ; qtot -0.978
    11      CG321    501      7V7     C8     11    -0.092000    12.0110   ; qtot -1.070
    12      CG324    501      7V7     C9     12     0.142000    12.0110   ; qtot -0.928
    13      CG321    501      7V7    C10     13    -0.201000    12.0110   ; qtot -1.129
    14     CG2R61    501      7V7    C11     14     0.054000    12.0110   ; qtot -1.075
    15     CG2R61    501      7V7    C12     15    -0.118000    12.0110   ; qtot -1.193
    16     CG2R61    501      7V7    C13     16    -0.107000    12.0110   ; qtot -1.300
    17     CG2R61    501      7V7    C14     17    -0.115000    12.0110   ; qtot -1.415
    18     CG2R61    501      7V7    C15     18    -0.107000    12.0110   ; qtot -1.522
    19     CG2R61    501      7V7    C16     19    -0.118000    12.0110   ; qtot -1.640
    20     CG2R61    501      7V7    C17     20     0.121000    12.0110   ; qtot -1.519
    21     CG2R61    501      7V7    C18     21    -0.112000    12.0110   ; qtot -1.631
    22     CG2R61    501      7V7    C19     22    -0.116000    12.0110   ; qtot -1.747
    23     CG2R61    501      7V7    C20     23    -0.115000    12.0110   ; qtot -1.862
    24     CG2R61    501      7V7    C21     24    -0.116000    12.0110   ; qtot -1.978
    25     CG2R61    501      7V7    C22     25    -0.112000    12.0110   ; qtot -2.090
    26       HGA2    501      7V7     H1     26     0.090000     1.0080   ; qtot -2.000
    27       HGA2    501      7V7     H2     27     0.090000     1.0080   ; qtot -1.910
    28       HGA3    501      7V7     H3     28     0.090000     1.0080   ; qtot -1.820
    29       HGA3    501      7V7     H4     29     0.090000     1.0080   ; qtot -1.730
    30       HGA3    501      7V7     H5     30     0.090000     1.0080   ; qtot -1.640
    31       HGA1    501      7V7     H6     31     0.090000     1.0080   ; qtot -1.550
    32       HGA2    501      7V7     H7     32     0.090000     1.0080   ; qtot -1.460
    33       HGA2    501      7V7     H8     33     0.090000     1.0080   ; qtot -1.370
    34       HGA2    501      7V7     H9     34     0.090000     1.0080   ; qtot -1.280
    35       HGA2    501      7V7    H10     35     0.090000     1.0080   ; qtot -1.190
    36       HGP2    501      7V7    H11     36     0.320000     1.0080   ; qtot -0.870
    37       HGA2    501      7V7    H12     37     0.090000     1.0080   ; qtot -0.780
    38       HGA2    501      7V7    H13     38     0.090000     1.0080   ; qtot -0.690
    39       HGA2    501      7V7    H14     39     0.090000     1.0080   ; qtot -0.600
    40       HGA2    501      7V7    H15     40     0.090000     1.0080   ; qtot -0.510
    41       HGA2    501      7V7    H16     41     0.090000     1.0080   ; qtot -0.420
    42       HGA2    501      7V7    H17     42     0.090000     1.0080   ; qtot -0.330
    43       HGA2    501      7V7    H18     43     0.090000     1.0080   ; qtot -0.240
    44       HGA2    501      7V7    H19     44     0.090000     1.0080   ; qtot -0.150
    45      HGR61    501      7V7    H20     45     0.115000     1.0080   ; qtot -0.035
    46      HGR61    501      7V7    H21     46     0.115000     1.0080   ; qtot  0.080
    47      HGR61    501      7V7    H22     47     0.115000     1.0080   ; qtot  0.195
    48      HGR61    501      7V7    H23     48     0.115000     1.0080   ; qtot  0.310
    49      HGR61    501      7V7    H24     49     0.115000     1.0080   ; qtot  0.425
    50      HGR61    501      7V7    H25     50     0.115000     1.0080   ; qtot  0.540
    51      HGR61    501      7V7    H26     51     0.115000     1.0080   ; qtot  0.655
    52      HGR61    501      7V7    H27     52     0.115000     1.0080   ; qtot  0.770
    53      HGR61    501      7V7    H28     53     0.115000     1.0080   ; qtot  0.885
    54      HGR61    501      7V7    H29     54     0.115000     1.0080   ; qtot  1.000

[ bonds ]
; ai	aj	funct	b0	Kb
    1     2     1
    2     3     1
    2     5     1
    3     4     1
    3    26     1
    3    27     1
    4    28     1
    4    29     1
    4    30     1
    5     6     1
    5    20     1
    6     7     1
    6    11     1
    6    31     1
    7     8     1
    7    32     1
    7    33     1
    8     9     1
    8    34     1
    8    35     1
    9    10     1
    9    12     1
    9    36     1
   10    11     1
   10    37     1
   10    38     1
   11    39     1
   11    40     1
   12    13     1
   12    41     1
   12    42     1
   13    14     1
   13    43     1
   13    44     1
   14    15     1
   14    19     1
   15    16     1
   15    45     1
   16    17     1
   16    46     1
   17    18     1
   17    47     1
   18    19     1
   18    48     1
   19    49     1
   20    21     1
   20    25     1
   21    22     1
   21    50     1
   22    23     1
   22    51     1
   23    24     1
   23    52     1
   24    25     1
   24    53     1
   25    54     1

[ pairs ]
; ai	aj	funct	c6	c12 or
; ai	aj	funct	fudgeQQ	q1	q2	c6	c12
    1     4     1
    1     6     1
    1    20     1
    1    26     1
    1    27     1
    2     7     1
    2    11     1
    2    21     1
    2    25     1
    2    28     1
    2    29     1
    2    30     1
    2    31     1
    3     6     1
    3    20     1
    4     5     1
    5     8     1
    5    10     1
    5    22     1
    5    24     1
    5    26     1
    5    27     1
    5    32     1
    5    33     1
    5    39     1
    5    40     1
    5    50     1
    5    54     1
    6     9     1
    6    21     1
    6    25     1
    6    34     1
    6    35     1
    6    37     1
    6    38     1
    7    10     1
    7    12     1
    7    20     1
    7    36     1
    7    39     1
    7    40     1
    8    11     1
    8    13     1
    8    31     1
    8    37     1
    8    38     1
    8    41     1
    8    42     1
    9    14     1
    9    32     1
    9    33     1
    9    39     1
    9    40     1
    9    43     1
    9    44     1
   10    13     1
   10    31     1
   10    34     1
   10    35     1
   10    41     1
   10    42     1
   11    12     1
   11    20     1
   11    32     1
   11    33     1
   11    36     1
   12    15     1
   12    19     1
   12    34     1
   12    35     1
   12    37     1
   12    38     1
   13    16     1
   13    18     1
   13    36     1
   13    45     1
   13    49     1
   14    17     1
   14    41     1
   14    42     1
   14    46     1
   14    48     1
   15    18     1
   15    43     1
   15    44     1
   15    47     1
   15    49     1
   16    19     1
   16    48     1
   17    45     1
   17    49     1
   18    46     1
   19    43     1
   19    44     1
   19    45     1
   19    47     1
   20    23     1
   20    31     1
   20    51     1
   20    53     1
   21    24     1
   21    52     1
   21    54     1
   22    25     1
   22    53     1
   23    50     1
   23    54     1
   24    51     1
   25    50     1
   25    52     1
   26    28     1
   26    29     1
   26    30     1
   27    28     1
   27    29     1
   27    30     1
   31    32     1
   31    33     1
   31    39     1
   31    40     1
   32    34     1
   32    35     1
   33    34     1
   33    35     1
   34    36     1
   35    36     1
   36    37     1
   36    38     1
   36    41     1
   36    42     1
   37    39     1
   37    40     1
   38    39     1
   38    40     1
   41    43     1
   41    44     1
   42    43     1
   42    44     1
   45    46     1
   46    47     1
   47    48     1
   48    49     1
   50    51     1
   51    52     1
   52    53     1
   53    54     1

[ angles ] 
; ai	aj	ak	funct	th0	cth	S0	Kub
    1     2     3     5
    1     2     5     5
    3     2     5     5
    2     3     4     5
    2     3    26     5
    2     3    27     5
    4     3    26     5
    4     3    27     5
   26     3    27     5
    3     4    28     5
    3     4    29     5
    3     4    30     5
   28     4    29     5
   28     4    30     5
   29     4    30     5
    2     5     6     5
    2     5    20     5
    6     5    20     5
    5     6     7     5
    5     6    11     5
    5     6    31     5
    7     6    11     5
    7     6    31     5
   11     6    31     5
    6     7     8     5
    6     7    32     5
    6     7    33     5
    8     7    32     5
    8     7    33     5
   32     7    33     5
    7     8     9     5
    7     8    34     5
    7     8    35     5
    9     8    34     5
    9     8    35     5
   34     8    35     5
    8     9    10     5
    8     9    12     5
    8     9    36     5
   10     9    12     5
   10     9    36     5
   12     9    36     5
    9    10    11     5
    9    10    37     5
    9    10    38     5
   11    10    37     5
   11    10    38     5
   37    10    38     5
    6    11    10     5
    6    11    39     5
    6    11    40     5
   10    11    39     5
   10    11    40     5
   39    11    40     5
    9    12    13     5
    9    12    41     5
    9    12    42     5
   13    12    41     5
   13    12    42     5
   41    12    42     5
   12    13    14     5
   12    13    43     5
   12    13    44     5
   14    13    43     5
   14    13    44     5
   43    13    44     5
   13    14    15     5
   13    14    19     5
   15    14    19     5
   14    15    16     5
   14    15    45     5
   16    15    45     5
   15    16    17     5
   15    16    46     5
   17    16    46     5
   16    17    18     5
   16    17    47     5
   18    17    47     5
   17    18    19     5
   17    18    48     5
   19    18    48     5
   14    19    18     5
   14    19    49     5
   18    19    49     5
    5    20    21     5
    5    20    25     5
   21    20    25     5
   20    21    22     5
   20    21    50     5
   22    21    50     5
   21    22    23     5
   21    22    51     5
   23    22    51     5
   22    23    24     5
   22    23    52     5
   24    23    52     5
   23    24    25     5
   23    24    53     5
   25    24    53     5
   20    25    24     5
   20    25    54     5
   24    25    54     5

[ dihedrals ]
; ai	aj	ak	al	funct	phi0	cp	mult
    1     2     3     4     9
    1     2     3    26     9
    1     2     3    27     9
    5     2     3    26     9
    5     2     3    27     9
    1     2     5     6     9
    1     2     5    20     9
    3     2     5     6     9
    3     2     5    20     9
    4     3     2     5     9
    2     3     4    28     9
    2     3     4    29     9
    2     3     4    30     9
   26     3     4    28     9
   26     3     4    29     9
   26     3     4    30     9
   27     3     4    28     9
   27     3     4    29     9
   27     3     4    30     9
    2     5     6     7     9
    2     5     6    11     9
    2     5     6    31     9
   20     5     6    31     9
    2     5    20    21     9
    2     5    20    25     9
    6     5    20    21     9
    6     5    20    25     9
    7     6     5    20     9
   11     6     5    20     9
    5     6     7     8     9
    5     6     7    32     9
    5     6     7    33     9
   11     6     7    32     9
   11     6     7    33     9
   31     6     7    32     9
   31     6     7    33     9
    5     6    11    10     9
    5     6    11    39     9
    5     6    11    40     9
    7     6    11    10     9
    7     6    11    39     9
    7     6    11    40     9
   31     6    11    39     9
   31     6    11    40     9
    8     7     6    11     9
    8     7     6    31     9
    6     7     8     9     9
    6     7     8    34     9
    6     7     8    35     9
   32     7     8    34     9
   32     7     8    35     9
   33     7     8    34     9
   33     7     8    35     9
    9     8     7    32     9
    9     8     7    33     9
    7     8     9    10     9
    7     8     9    12     9
    7     8     9    36     9
   34     8     9    36     9
   35     8     9    36     9
   10     9     8    34     9
   10     9     8    35     9
   12     9     8    34     9
   12     9     8    35     9
    8     9    10    11     9
    8     9    10    37     9
    8     9    10    38     9
   12     9    10    37     9
   12     9    10    38     9
   36     9    10    37     9
   36     9    10    38     9
    8     9    12    13     9
    8     9    12    41     9
    8     9    12    42     9
   10     9    12    13     9
   10     9    12    41     9
   10     9    12    42     9
   36     9    12    41     9
   36     9    12    42     9
   11    10     9    12     9
   11    10     9    36     9
    9    10    11    39     9
    9    10    11    40     9
   37    10    11    39     9
   37    10    11    40     9
   38    10    11    39     9
   38    10    11    40     9
   10    11     6    31     9
    6    11    10     9     9
    6    11    10    37     9
    6    11    10    38     9
   13    12     9    36     9
    9    12    13    14     9
    9    12    13    43     9
    9    12    13    44     9
   41    12    13    43     9
   41    12    13    44     9
   42    12    13    43     9
   42    12    13    44     9
   14    13    12    41     9
   14    13    12    42     9
   12    13    14    15     9
   12    13    14    19     9
   15    14    13    43     9
   15    14    13    44     9
   19    14    13    43     9
   19    14    13    44     9
   13    14    15    16     9
   13    14    15    45     9
   19    14    15    45     9
   13    14    19    18     9
   13    14    19    49     9
   15    14    19    18     9
   15    14    19    49     9
   16    15    14    19     9
   14    15    16    17     9
   14    15    16    46     9
   45    15    16    46     9
   17    16    15    45     9
   15    16    17    18     9
   15    16    17    47     9
   46    16    17    47     9
   18    17    16    46     9
   16    17    18    19     9
   16    17    18    48     9
   47    17    18    48     9
   19    18    17    47     9
   17    18    19    49     9
   48    18    19    49     9
   14    19    18    17     9
   14    19    18    48     9
    5    20    21    22     9
    5    20    21    50     9
   25    20    21    50     9
    5    20    25    24     9
    5    20    25    54     9
   21    20    25    24     9
   21    20    25    54     9
   22    21    20    25     9
   20    21    22    23     9
   20    21    22    51     9
   50    21    22    51     9
   23    22    21    50     9
   21    22    23    24     9
   21    22    23    52     9
   51    22    23    52     9
   24    23    22    51     9
   22    23    24    25     9
   22    23    24    53     9
   52    23    24    53     9
   25    24    23    52     9
   23    24    25    54     9
   53    24    25    54     9
   20    25    24    23     9
   20    25    24    53     9

[ dihedrals ]
; ai	aj	ak	al	funct	q0	cq
    2     3     5     1     2

#ifdef POSRES
[ position_restraints ]
    1     1    POSRES_FC_BB    POSRES_FC_BB    POSRES_FC_BB   
    2     1    POSRES_FC_BB    POSRES_FC_BB    POSRES_FC_BB   
    3     1    POSRES_FC_BB    POSRES_FC_BB    POSRES_FC_BB   
    4     1    POSRES_FC_BB    POSRES_FC_BB    POSRES_FC_BB   
    5     1    POSRES_FC_BB    POSRES_FC_BB    POSRES_FC_BB   
    6     1    POSRES_FC_BB    POSRES_FC_BB    POSRES_FC_BB   
    7     1    POSRES_FC_BB    POSRES_FC_BB    POSRES_FC_BB   
    8     1    POSRES_FC_BB    POSRES_FC_BB    POSRES_FC_BB   
    9     1    POSRES_FC_BB    POSRES_FC_BB    POSRES_FC_BB   
   10     1    POSRES_FC_BB    POSRES_FC_BB    POSRES_FC_BB   
   11     1    POSRES_FC_BB    POSRES_FC_BB    POSRES_FC_BB   
   12     1    POSRES_FC_BB    POSRES_FC_BB    POSRES_FC_BB   
   13     1    POSRES_FC_BB    POSRES_FC_BB    POSRES_FC_BB   
   14     1    POSRES_FC_BB    POSRES_FC_BB    POSRES_FC_BB   
   15     1    POSRES_FC_BB    POSRES_FC_BB    POSRES_FC_BB   
   16     1    POSRES_FC_BB    POSRES_FC_BB    POSRES_FC_BB   
   17     1    POSRES_FC_BB    POSRES_FC_BB    POSRES_FC_BB   
   18     1    POSRES_FC_BB    POSRES_FC_BB    POSRES_FC_BB   
   19     1    POSRES_FC_BB    POSRES_FC_BB    POSRES_FC_BB   
   20     1    POSRES_FC_BB    POSRES_FC_BB    POSRES_FC_BB   
   21     1    POSRES_FC_BB    POSRES_FC_BB    POSRES_FC_BB   
   22     1    POSRES_FC_BB    POSRES_FC_BB    POSRES_FC_BB   
   23     1    POSRES_FC_BB    POSRES_FC_BB    POSRES_FC_BB   
   24     1    POSRES_FC_BB    POSRES_FC_BB    POSRES_FC_BB   
   25     1    POSRES_FC_BB    POSRES_FC_BB    POSRES_FC_BB   
#endif
