;;
;; Generated by CHARMM-GUI FF-Converter
;;
;; Correspondance:
;; jul316@lehigh.edu or wonpil@lehigh.edu
;;
;; GROMACS topology file for CLR
;;


[ moleculetype ]
; name	nrexcl
CLR	     3

[ atoms ]
; nr	type	resnr	residu	atom	cgnr	charge	mass
     1      CG321    502      CLR     C1      1    -0.180000    12.0110   ; qtot -0.180
     2      OG311    502      CLR      O      2    -0.649000    15.9994   ; qtot -0.829
     3      CG321    502      CLR     C2      3    -0.181000    12.0110   ; qtot -1.010
     4      CG311    502      CLR     C3      4     0.138000    12.0110   ; qtot -0.872
     5      CG321    502      CLR     C4      5    -0.180000    12.0110   ; qtot -1.052
     6      CG2D1    502      CLR     C5      6     0.003000    12.0110   ; qtot -1.049
     7      CG2D1    502      CLR     C6      7    -0.153000    12.0110   ; qtot -1.202
     8      CG321    502      CLR     C7      8    -0.178000    12.0110   ; qtot -1.380
     9      CG311    502      CLR     C8      9    -0.086000    12.0110   ; qtot -1.466
    10      CG311    502      CLR     C9     10    -0.098000    12.0110   ; qtot -1.564
    11      CG301    502      CLR    C10     11    -0.001000    12.0110   ; qtot -1.565
    12      CG321    502      CLR    C11     12    -0.176000    12.0110   ; qtot -1.741
    13      CG321    502      CLR    C12     13    -0.186000    12.0110   ; qtot -1.927
    14     CG3RC1    502      CLR    C13     14     0.004000    12.0110   ; qtot -1.923
    15     CG3RC1    502      CLR    C14     15    -0.094000    12.0110   ; qtot -2.017
    16     CG3C52    502      CLR    C15     16    -0.183000    12.0110   ; qtot -2.200
    17     CG3C52    502      CLR    C16     17    -0.183000    12.0110   ; qtot -2.383
    18     CG3C51    502      CLR    C17     18    -0.091000    12.0110   ; qtot -2.474
    19      CG331    502      CLR    C18     19    -0.271000    12.0110   ; qtot -2.745
    20      CG331    502      CLR    C19     20    -0.272000    12.0110   ; qtot -3.017
    21      CG311    502      CLR    C20     21    -0.093000    12.0110   ; qtot -3.110
    22      CG331    502      CLR    C21     22    -0.272000    12.0110   ; qtot -3.382
    23      CG321    502      CLR    C22     23    -0.172000    12.0110   ; qtot -3.554
    24      CG321    502      CLR    C23     24    -0.178000    12.0110   ; qtot -3.732
    25      CG321    502      CLR    C24     25    -0.170000    12.0110   ; qtot -3.902
    26      CG311    502      CLR    C25     26    -0.090000    12.0110   ; qtot -3.992
    27      CG331    502      CLR    C26     27    -0.269000    12.0110   ; qtot -4.261
    28      CG331    502      CLR    C27     28    -0.269000    12.0110   ; qtot -4.530
    29       HGA2    502      CLR     H1     29     0.090000     1.0080   ; qtot -4.440
    30       HGA2    502      CLR     H2     30     0.090000     1.0080   ; qtot -4.350
    31       HGP1    502      CLR     H3     31     0.420000     1.0080   ; qtot -3.930
    32       HGA2    502      CLR     H4     32     0.090000     1.0080   ; qtot -3.840
    33       HGA2    502      CLR     H5     33     0.090000     1.0080   ; qtot -3.750
    34       HGA1    502      CLR     H6     34     0.090000     1.0080   ; qtot -3.660
    35       HGA2    502      CLR     H7     35     0.090000     1.0080   ; qtot -3.570
    36       HGA2    502      CLR     H8     36     0.090000     1.0080   ; qtot -3.480
    37       HGA4    502      CLR     H9     37     0.150000     1.0080   ; qtot -3.330
    38       HGA2    502      CLR    H10     38     0.090000     1.0080   ; qtot -3.240
    39       HGA2    502      CLR    H11     39     0.090000     1.0080   ; qtot -3.150
    40       HGA1    502      CLR    H12     40     0.090000     1.0080   ; qtot -3.060
    41       HGA1    502      CLR    H13     41     0.090000     1.0080   ; qtot -2.970
    42       HGA2    502      CLR    H14     42     0.090000     1.0080   ; qtot -2.880
    43       HGA2    502      CLR    H15     43     0.090000     1.0080   ; qtot -2.790
    44       HGA2    502      CLR    H16     44     0.090000     1.0080   ; qtot -2.700
    45       HGA2    502      CLR    H17     45     0.090000     1.0080   ; qtot -2.610
    46       HGA1    502      CLR    H18     46     0.090000     1.0080   ; qtot -2.520
    47       HGA2    502      CLR    H19     47     0.090000     1.0080   ; qtot -2.430
    48       HGA2    502      CLR    H20     48     0.090000     1.0080   ; qtot -2.340
    49       HGA2    502      CLR    H21     49     0.090000     1.0080   ; qtot -2.250
    50       HGA2    502      CLR    H22     50     0.090000     1.0080   ; qtot -2.160
    51       HGA1    502      CLR    H23     51     0.090000     1.0080   ; qtot -2.070
    52       HGA3    502      CLR    H24     52     0.090000     1.0080   ; qtot -1.980
    53       HGA3    502      CLR    H25     53     0.090000     1.0080   ; qtot -1.890
    54       HGA3    502      CLR    H26     54     0.090000     1.0080   ; qtot -1.800
    55       HGA3    502      CLR    H27     55     0.090000     1.0080   ; qtot -1.710
    56       HGA3    502      CLR    H28     56     0.090000     1.0080   ; qtot -1.620
    57       HGA3    502      CLR    H29     57     0.090000     1.0080   ; qtot -1.530
    58       HGA1    502      CLR    H30     58     0.090000     1.0080   ; qtot -1.440
    59       HGA3    502      CLR    H31     59     0.090000     1.0080   ; qtot -1.350
    60       HGA3    502      CLR    H32     60     0.090000     1.0080   ; qtot -1.260
    61       HGA3    502      CLR    H33     61     0.090000     1.0080   ; qtot -1.170
    62       HGA2    502      CLR    H34     62     0.090000     1.0080   ; qtot -1.080
    63       HGA2    502      CLR    H35     63     0.090000     1.0080   ; qtot -0.990
    64       HGA2    502      CLR    H36     64     0.090000     1.0080   ; qtot -0.900
    65       HGA2    502      CLR    H37     65     0.090000     1.0080   ; qtot -0.810
    66       HGA2    502      CLR    H38     66     0.090000     1.0080   ; qtot -0.720
    67       HGA2    502      CLR    H39     67     0.090000     1.0080   ; qtot -0.630
    68       HGA1    502      CLR    H40     68     0.090000     1.0080   ; qtot -0.540
    69       HGA3    502      CLR    H41     69     0.090000     1.0080   ; qtot -0.450
    70       HGA3    502      CLR    H42     70     0.090000     1.0080   ; qtot -0.360
    71       HGA3    502      CLR    H43     71     0.090000     1.0080   ; qtot -0.270
    72       HGA3    502      CLR    H44     72     0.090000     1.0080   ; qtot -0.180
    73       HGA3    502      CLR    H45     73     0.090000     1.0080   ; qtot -0.090
    74       HGA3    502      CLR    H46     74     0.090000     1.0080   ; qtot -0.000

[ bonds ]
; ai	aj	funct	b0	Kb
    1     3     1
    1    11     1
    1    29     1
    1    30     1
    4     2     1
    2    31     1
    3     4     1
    3    32     1
    3    33     1
    4     5     1
    4    34     1
    5     6     1
    5    35     1
    5    36     1
    6     7     1
    6    11     1
    7     8     1
    7    37     1
    9     8     1
    8    38     1
    8    39     1
    9    10     1
    9    15     1
    9    40     1
   10    11     1
   10    12     1
   10    41     1
   11    20     1
   12    13     1
   12    42     1
   12    43     1
   13    14     1
   13    44     1
   13    45     1
   14    15     1
   14    18     1
   14    19     1
   15    16     1
   15    46     1
   16    17     1
   16    47     1
   16    48     1
   18    17     1
   17    49     1
   17    50     1
   18    21     1
   18    51     1
   19    52     1
   19    53     1
   19    54     1
   20    55     1
   20    56     1
   20    57     1
   21    22     1
   21    23     1
   21    58     1
   22    59     1
   22    60     1
   22    61     1
   23    24     1
   23    62     1
   23    63     1
   24    25     1
   24    64     1
   24    65     1
   25    26     1
   25    66     1
   25    67     1
   26    27     1
   26    28     1
   26    68     1
   27    69     1
   27    70     1
   27    71     1
   28    72     1
   28    73     1
   28    74     1

[ pairs ]
; ai	aj	funct	c6	c12 or
; ai	aj	funct	fudgeQQ	q1	q2	c6	c12
    1     2     1
    1     5     1
    1     7     1
    1     9     1
    1    12     1
    1    34     1
    1    41     1
    1    55     1
    1    56     1
    1    57     1
    2     6     1
    2    32     1
    2    33     1
    2    35     1
    2    36     1
    3     6     1
    3    10     1
    3    20     1
    3    31     1
    3    35     1
    3    36     1
    4     7     1
    4    11     1
    4    29     1
    4    30     1
    5     8     1
    5    10     1
    5    20     1
    5    31     1
    5    32     1
    5    33     1
    5    37     1
    6     9     1
    6    12     1
    6    29     1
    6    30     1
    6    34     1
    6    38     1
    6    39     1
    6    41     1
    6    55     1
    6    56     1
    6    57     1
    7    10     1
    7    15     1
    7    20     1
    7    35     1
    7    36     1
    7    40     1
    8    11     1
    8    12     1
    8    14     1
    8    16     1
    8    41     1
    8    46     1
    9    13     1
    9    17     1
    9    18     1
    9    19     1
    9    20     1
    9    37     1
    9    42     1
    9    43     1
    9    47     1
    9    48     1
   10    14     1
   10    16     1
   10    29     1
   10    30     1
   10    38     1
   10    39     1
   10    44     1
   10    45     1
   10    46     1
   10    55     1
   10    56     1
   10    57     1
   11    13     1
   11    15     1
   11    32     1
   11    33     1
   11    35     1
   11    36     1
   11    37     1
   11    40     1
   11    42     1
   11    43     1
   12    15     1
   12    18     1
   12    19     1
   12    20     1
   12    40     1
   13    16     1
   13    17     1
   13    21     1
   13    41     1
   13    46     1
   13    51     1
   13    52     1
   13    53     1
   13    54     1
   14    22     1
   14    23     1
   14    40     1
   14    42     1
   14    43     1
   14    47     1
   14    48     1
   14    49     1
   14    50     1
   14    58     1
   15    21     1
   15    38     1
   15    39     1
   15    41     1
   15    44     1
   15    45     1
   15    49     1
   15    50     1
   15    51     1
   15    52     1
   15    53     1
   15    54     1
   16    19     1
   16    21     1
   16    40     1
   16    51     1
   17    19     1
   17    22     1
   17    23     1
   17    46     1
   17    58     1
   18    24     1
   18    44     1
   18    45     1
   18    46     1
   18    47     1
   18    48     1
   18    52     1
   18    53     1
   18    54     1
   18    59     1
   18    60     1
   18    61     1
   18    62     1
   18    63     1
   19    21     1
   19    44     1
   19    45     1
   19    46     1
   19    51     1
   20    29     1
   20    30     1
   20    41     1
   21    25     1
   21    49     1
   21    50     1
   21    64     1
   21    65     1
   22    24     1
   22    51     1
   22    62     1
   22    63     1
   23    26     1
   23    51     1
   23    59     1
   23    60     1
   23    61     1
   23    66     1
   23    67     1
   24    27     1
   24    28     1
   24    58     1
   24    68     1
   25    62     1
   25    63     1
   25    69     1
   25    70     1
   25    71     1
   25    72     1
   25    73     1
   25    74     1
   26    64     1
   26    65     1
   27    66     1
   27    67     1
   27    72     1
   27    73     1
   27    74     1
   28    66     1
   28    67     1
   28    69     1
   28    70     1
   28    71     1
   29    32     1
   29    33     1
   30    32     1
   30    33     1
   31    34     1
   32    34     1
   33    34     1
   34    35     1
   34    36     1
   37    38     1
   37    39     1
   38    40     1
   39    40     1
   40    41     1
   40    46     1
   41    42     1
   41    43     1
   42    44     1
   42    45     1
   43    44     1
   43    45     1
   46    47     1
   46    48     1
   47    49     1
   47    50     1
   48    49     1
   48    50     1
   49    51     1
   50    51     1
   51    58     1
   58    59     1
   58    60     1
   58    61     1
   58    62     1
   58    63     1
   62    64     1
   62    65     1
   63    64     1
   63    65     1
   64    66     1
   64    67     1
   65    66     1
   65    67     1
   66    68     1
   67    68     1
   68    69     1
   68    70     1
   68    71     1
   68    72     1
   68    73     1
   68    74     1

[ angles ] 
; ai	aj	ak	funct	th0	cth	S0	Kub
    3     1    11     5
    3     1    29     5
    3     1    30     5
   11     1    29     5
   11     1    30     5
   29     1    30     5
    4     2    31     5
    1     3     4     5
    1     3    32     5
    1     3    33     5
    4     3    32     5
    4     3    33     5
   32     3    33     5
    2     4     3     5
    2     4     5     5
    2     4    34     5
    3     4     5     5
    3     4    34     5
    5     4    34     5
    4     5     6     5
    4     5    35     5
    4     5    36     5
    6     5    35     5
    6     5    36     5
   35     5    36     5
    5     6     7     5
    5     6    11     5
    7     6    11     5
    6     7     8     5
    6     7    37     5
    8     7    37     5
    7     8     9     5
    7     8    38     5
    7     8    39     5
    9     8    38     5
    9     8    39     5
   38     8    39     5
    8     9    10     5
    8     9    15     5
    8     9    40     5
   10     9    15     5
   10     9    40     5
   15     9    40     5
    9    10    11     5
    9    10    12     5
    9    10    41     5
   11    10    12     5
   11    10    41     5
   12    10    41     5
    1    11     6     5
    1    11    10     5
    1    11    20     5
    6    11    10     5
    6    11    20     5
   10    11    20     5
   10    12    13     5
   10    12    42     5
   10    12    43     5
   13    12    42     5
   13    12    43     5
   42    12    43     5
   12    13    14     5
   12    13    44     5
   12    13    45     5
   14    13    44     5
   14    13    45     5
   44    13    45     5
   13    14    15     5
   13    14    18     5
   13    14    19     5
   15    14    18     5
   15    14    19     5
   18    14    19     5
    9    15    14     5
    9    15    16     5
    9    15    46     5
   14    15    16     5
   14    15    46     5
   16    15    46     5
   15    16    17     5
   15    16    47     5
   15    16    48     5
   17    16    47     5
   17    16    48     5
   47    16    48     5
   16    17    18     5
   16    17    49     5
   16    17    50     5
   18    17    49     5
   18    17    50     5
   49    17    50     5
   14    18    17     5
   14    18    21     5
   14    18    51     5
   17    18    21     5
   17    18    51     5
   21    18    51     5
   14    19    52     5
   14    19    53     5
   14    19    54     5
   52    19    53     5
   52    19    54     5
   53    19    54     5
   11    20    55     5
   11    20    56     5
   11    20    57     5
   55    20    56     5
   55    20    57     5
   56    20    57     5
   18    21    22     5
   18    21    23     5
   18    21    58     5
   22    21    23     5
   22    21    58     5
   23    21    58     5
   21    22    59     5
   21    22    60     5
   21    22    61     5
   59    22    60     5
   59    22    61     5
   60    22    61     5
   21    23    24     5
   21    23    62     5
   21    23    63     5
   24    23    62     5
   24    23    63     5
   62    23    63     5
   23    24    25     5
   23    24    64     5
   23    24    65     5
   25    24    64     5
   25    24    65     5
   64    24    65     5
   24    25    26     5
   24    25    66     5
   24    25    67     5
   26    25    66     5
   26    25    67     5
   66    25    67     5
   25    26    27     5
   25    26    28     5
   25    26    68     5
   27    26    28     5
   27    26    68     5
   28    26    68     5
   26    27    69     5
   26    27    70     5
   26    27    71     5
   69    27    70     5
   69    27    71     5
   70    27    71     5
   26    28    72     5
   26    28    73     5
   26    28    74     5
   72    28    73     5
   72    28    74     5
   73    28    74     5

[ dihedrals ]
; ai	aj	ak	al	funct	phi0	cp	mult
   11     1     3    32     9
   11     1     3    33     9
   29     1     3    32     9
   29     1     3    33     9
   30     1     3    32     9
   30     1     3    33     9
    3     1    11     6     9
    3     1    11    10     9
    3     1    11    20     9
   31     2     4    34     9
    4     3     1    11     9
    4     3     1    29     9
    4     3     1    30     9
    1     3     4     2     9
    1     3     4     5     9
    1     3     4    34     9
   32     3     4    34     9
   33     3     4    34     9
    3     4     2    31     9
    5     4     2    31     9
    2     4     3    32     9
    2     4     3    33     9
    5     4     3    32     9
    5     4     3    33     9
    2     4     5     6     9
    2     4     5    35     9
    2     4     5    36     9
    3     4     5     6     9
    3     4     5    35     9
    3     4     5    36     9
   34     4     5    35     9
   34     4     5    36     9
    6     5     4    34     9
    4     5     6     7     9
    4     5     6    11     9
    7     6     5    35     9
    7     6     5    36     9
   11     6     5    35     9
   11     6     5    36     9
    5     6     7     8     9
    5     6     7    37     9
   11     6     7    37     9
    5     6    11    10     9
    5     6    11    20     9
    7     6    11    10     9
    7     6    11    20     9
    8     7     6    11     9
    6     7     8     9     9
    6     7     8    38     9
    6     7     8    39     9
   37     7     8    38     9
   37     7     8    39     9
    9     8     7    37     9
    7     8     9    10     9
    7     8     9    15     9
    7     8     9    40     9
   38     8     9    40     9
   39     8     9    40     9
   10     9     8    38     9
   10     9     8    39     9
   15     9     8    38     9
   15     9     8    39     9
    8     9    10    11     9
    8     9    10    12     9
    8     9    10    41     9
   15     9    10    41     9
   40     9    10    41     9
    8     9    15    14     9
    8     9    15    16     9
    8     9    15    46     9
   10     9    15    14     9
   10     9    15    16     9
   10     9    15    46     9
   40     9    15    46     9
   11    10     9    15     9
   11    10     9    40     9
   12    10     9    15     9
   12    10     9    40     9
    9    10    11    20     9
   12    10    11    20     9
    9    10    12    13     9
    9    10    12    42     9
    9    10    12    43     9
   11    10    12    13     9
   11    10    12    42     9
   11    10    12    43     9
   41    10    12    42     9
   41    10    12    43     9
    6    11     1    29     9
    6    11     1    30     9
   10    11     1    29     9
   10    11     1    30     9
   20    11     1    29     9
   20    11     1    30     9
    1    11     6     5     9
    1    11     6     7     9
    1    11    10     9     9
    1    11    10    12     9
    1    11    10    41     9
    6    11    10     9     9
    6    11    10    12     9
    6    11    10    41     9
   20    11    10    41     9
    1    11    20    55     9
    1    11    20    56     9
    1    11    20    57     9
    6    11    20    55     9
    6    11    20    56     9
    6    11    20    57     9
   10    11    20    55     9
   10    11    20    56     9
   10    11    20    57     9
   13    12    10    41     9
   10    12    13    14     9
   10    12    13    44     9
   10    12    13    45     9
   42    12    13    44     9
   42    12    13    45     9
   43    12    13    44     9
   43    12    13    45     9
   14    13    12    42     9
   14    13    12    43     9
   12    13    14    15     9
   12    13    14    18     9
   12    13    14    19     9
   15    14    13    44     9
   15    14    13    45     9
   18    14    13    44     9
   18    14    13    45     9
   19    14    13    44     9
   19    14    13    45     9
   13    14    15    16     9
   13    14    15    46     9
   18    14    15    46     9
   19    14    15    46     9
   13    14    18    17     9
   13    14    18    21     9
   13    14    18    51     9
   15    14    18    17     9
   15    14    18    21     9
   15    14    18    51     9
   19    14    18    21     9
   19    14    18    51     9
   13    14    19    52     9
   13    14    19    53     9
   13    14    19    54     9
   15    14    19    52     9
   15    14    19    53     9
   15    14    19    54     9
   18    14    19    52     9
   18    14    19    53     9
   18    14    19    54     9
   14    15     9    40     9
   16    15     9    40     9
    9    15    14    13     9
    9    15    14    18     9
    9    15    14    19     9
   16    15    14    18     9
   16    15    14    19     9
    9    15    16    17     9
    9    15    16    47     9
    9    15    16    48     9
   14    15    16    17     9
   14    15    16    47     9
   14    15    16    48     9
   46    15    16    47     9
   46    15    16    48     9
   17    16    15    46     9
   15    16    17    18     9
   15    16    17    49     9
   15    16    17    50     9
   47    16    17    49     9
   47    16    17    50     9
   48    16    17    49     9
   48    16    17    50     9
   18    17    16    47     9
   18    17    16    48     9
   16    17    18    21     9
   16    17    18    51     9
   49    17    18    51     9
   50    17    18    51     9
   17    18    14    19     9
   14    18    17    16     9
   14    18    17    49     9
   14    18    17    50     9
   21    18    17    49     9
   21    18    17    50     9
   14    18    21    22     9
   14    18    21    23     9
   14    18    21    58     9
   17    18    21    22     9
   17    18    21    23     9
   17    18    21    58     9
   51    18    21    58     9
   22    21    18    51     9
   23    21    18    51     9
   18    21    22    59     9
   18    21    22    60     9
   18    21    22    61     9
   23    21    22    59     9
   23    21    22    60     9
   23    21    22    61     9
   58    21    22    59     9
   58    21    22    60     9
   58    21    22    61     9
   18    21    23    24     9
   18    21    23    62     9
   18    21    23    63     9
   22    21    23    24     9
   22    21    23    62     9
   22    21    23    63     9
   58    21    23    62     9
   58    21    23    63     9
   24    23    21    58     9
   21    23    24    25     9
   21    23    24    64     9
   21    23    24    65     9
   62    23    24    64     9
   62    23    24    65     9
   63    23    24    64     9
   63    23    24    65     9
   25    24    23    62     9
   25    24    23    63     9
   23    24    25    26     9
   23    24    25    66     9
   23    24    25    67     9
   64    24    25    66     9
   64    24    25    67     9
   65    24    25    66     9
   65    24    25    67     9
   26    25    24    64     9
   26    25    24    65     9
   24    25    26    27     9
   24    25    26    28     9
   24    25    26    68     9
   66    25    26    68     9
   67    25    26    68     9
   27    26    25    66     9
   27    26    25    67     9
   28    26    25    66     9
   28    26    25    67     9
   25    26    27    69     9
   25    26    27    70     9
   25    26    27    71     9
   28    26    27    69     9
   28    26    27    70     9
   28    26    27    71     9
   68    26    27    69     9
   68    26    27    70     9
   68    26    27    71     9
   25    26    28    72     9
   25    26    28    73     9
   25    26    28    74     9
   27    26    28    72     9
   27    26    28    73     9
   27    26    28    74     9
   68    26    28    72     9
   68    26    28    73     9
   68    26    28    74     9

#ifdef POSRES
[ position_restraints ]
    1     1    POSRES_FC_BB    POSRES_FC_BB    POSRES_FC_BB   
    2     1    POSRES_FC_BB    POSRES_FC_BB    POSRES_FC_BB   
    3     1    POSRES_FC_BB    POSRES_FC_BB    POSRES_FC_BB   
    4     1    POSRES_FC_BB    POSRES_FC_BB    POSRES_FC_BB   
    5     1    POSRES_FC_BB    POSRES_FC_BB    POSRES_FC_BB   
    6     1    POSRES_FC_BB    POSRES_FC_BB    POSRES_FC_BB   
    7     1    POSRES_FC_BB    POSRES_FC_BB    POSRES_FC_BB   
    8     1    POSRES_FC_BB    POSRES_FC_BB    POSRES_FC_BB   
    9     1    POSRES_FC_BB    POSRES_FC_BB    POSRES_FC_BB   
   10     1    POSRES_FC_BB    POSRES_FC_BB    POSRES_FC_BB   
   11     1    POSRES_FC_BB    POSRES_FC_BB    POSRES_FC_BB   
   12     1    POSRES_FC_BB    POSRES_FC_BB    POSRES_FC_BB   
   13     1    POSRES_FC_BB    POSRES_FC_BB    POSRES_FC_BB   
   14     1    POSRES_FC_BB    POSRES_FC_BB    POSRES_FC_BB   
   15     1    POSRES_FC_BB    POSRES_FC_BB    POSRES_FC_BB   
   16     1    POSRES_FC_BB    POSRES_FC_BB    POSRES_FC_BB   
   17     1    POSRES_FC_BB    POSRES_FC_BB    POSRES_FC_BB   
   18     1    POSRES_FC_BB    POSRES_FC_BB    POSRES_FC_BB   
   19     1    POSRES_FC_BB    POSRES_FC_BB    POSRES_FC_BB   
   20     1    POSRES_FC_BB    POSRES_FC_BB    POSRES_FC_BB   
   21     1    POSRES_FC_BB    POSRES_FC_BB    POSRES_FC_BB   
   22     1    POSRES_FC_BB    POSRES_FC_BB    POSRES_FC_BB   
   23     1    POSRES_FC_BB    POSRES_FC_BB    POSRES_FC_BB   
   24     1    POSRES_FC_BB    POSRES_FC_BB    POSRES_FC_BB   
   25     1    POSRES_FC_BB    POSRES_FC_BB    POSRES_FC_BB   
   26     1    POSRES_FC_BB    POSRES_FC_BB    POSRES_FC_BB   
   27     1    POSRES_FC_BB    POSRES_FC_BB    POSRES_FC_BB   
   28     1    POSRES_FC_BB    POSRES_FC_BB    POSRES_FC_BB   
#endif
