;;
;; Generated by CHARMM-GUI FF-Converter
;;
;; Correspondance:
;; jul316@lehigh.edu or wonpil@lehigh.edu
;;
;; GROMACS topology file for JNJ
;;


[ moleculetype ]
; name	nrexcl
JNJ	     3

[ atoms ]
; nr	type	resnr	residu	atom	cgnr	charge	mass
     1      CG311    401      JNJ     C1      1     0.124000    12.0110   ; qtot  0.124
     2      CG331    401      JNJ     C2      2    -0.265000    12.0110   ; qtot -0.141
     3     CG2R61    401      JNJ     C3      3    -0.111000    12.0110   ; qtot -0.252
     4     CG2R61    401      JNJ     C4      4    -0.086000    12.0110   ; qtot -0.338
     5     CG2R61    401      JNJ     C5      5    -0.114000    12.0110   ; qtot -0.452
     6     CG2R61    401      JNJ     C6      6    -0.116000    12.0110   ; qtot -0.568
     7     CG2R61    401      JNJ     C7      7    -0.114000    12.0110   ; qtot -0.682
     8     CG2R61    401      JNJ     C8      8    -0.086000    12.0110   ; qtot -0.768
     9     CG2R61    401      JNJ     C9      9    -0.114000    12.0110   ; qtot -0.882
    10     CG2R61    401      JNJ    C10     10    -0.101000    12.0110   ; qtot -0.983
    11     CG2R61    401      JNJ    C11     11     0.046000    12.0110   ; qtot -0.937
    12     CG2R61    401      JNJ    C12     12    -0.041000    12.0110   ; qtot -0.978
    13     CG2R61    401      JNJ    C13     13    -0.151000    12.0110   ; qtot -1.129
    14     CG2R61    401      JNJ    C14     14    -0.052000    12.0110   ; qtot -1.181
    15      CG2O1    401      JNJ    C15     15     0.388000    12.0110   ; qtot -0.793
    16      CG321    401      JNJ    C16     16    -0.049000    12.0110   ; qtot -0.842
    17      CG2O1    401      JNJ    C17     17     0.584000    12.0110   ; qtot -0.258
    18      NG2S1    401      JNJ     N1     18    -0.294000    14.0070   ; qtot -0.552
    19      NG2S1    401      JNJ     N2     19    -0.574000    14.0070   ; qtot -1.126
    20      OG2D1    401      JNJ     O1     20    -0.467000    15.9994   ; qtot -1.593
    21      OG2D1    401      JNJ     O2     21    -0.507000    15.9994   ; qtot -2.100
    22      CLGR1    401      JNJ     CL     22    -0.200000    35.4530   ; qtot -2.300
    23       HGA1    401      JNJ     H1     23     0.090000     1.0080   ; qtot -2.210
    24       HGA3    401      JNJ     H2     24     0.090000     1.0080   ; qtot -2.120
    25       HGA3    401      JNJ     H3     25     0.090000     1.0080   ; qtot -2.030
    26       HGA3    401      JNJ     H4     26     0.090000     1.0080   ; qtot -1.940
    27      HGR61    401      JNJ     H5     27     0.116000     1.0080   ; qtot -1.824
    28      HGR61    401      JNJ     H6     28     0.116000     1.0080   ; qtot -1.708
    29      HGR61    401      JNJ     H7     29     0.116000     1.0080   ; qtot -1.592
    30      HGR61    401      JNJ     H8     30     0.116000     1.0080   ; qtot -1.476
    31      HGR61    401      JNJ     H9     31     0.116000     1.0080   ; qtot -1.360
    32      HGR61    401      JNJ    H10     32     0.116000     1.0080   ; qtot -1.244
    33      HGR62    401      JNJ    H11     33     0.150000     1.0080   ; qtot -1.094
    34      HGR62    401      JNJ    H12     34     0.150000     1.0080   ; qtot -0.944
    35      HGR61    401      JNJ    H13     35     0.116000     1.0080   ; qtot -0.828
    36       HGA2    401      JNJ    H14     36     0.090000     1.0080   ; qtot -0.738
    37       HGA2    401      JNJ    H15     37     0.090000     1.0080   ; qtot -0.648
    38       HGP1    401      JNJ    H16     38     0.265000     1.0080   ; qtot -0.383
    39       HGP1    401      JNJ    H17     39     0.333000     1.0080   ; qtot -0.050
    40        LPH    401      JNJ    LP1     40     0.050000     0.0000   ; qtot -0.000

[ bonds ]
; ai	aj	funct	b0	Kb
    1     2     1
    1     3     1
    1    19     1
    1    23     1
    2    24     1
    2    25     1
    2    26     1
    3     4     1
    3     8     1
    4     5     1
    4    27     1
    5     6     1
    5    28     1
    6     7     1
    6    29     1
    7     8     1
    7    30     1
    8    31     1
    9    10     1
    9    14     1
    9    32     1
   10    11     1
   10    33     1
   11    12     1
   11    22     1
   12    13     1
   12    34     1
   13    14     1
   13    15     1
   14    35     1
   15    18     1
   15    20     1
   16    17     1
   16    18     1
   16    36     1
   16    37     1
   17    19     1
   17    21     1
   18    38     1
   19    39     1

[ pairs ]
; ai	aj	funct	c6	c12 or
; ai	aj	funct	fudgeQQ	q1	q2	c6	c12
    1     5     1
    1     7     1
    1    16     1
    1    21     1
    1    27     1
    1    31     1
    2     4     1
    2     8     1
    2    17     1
    2    39     1
    3     6     1
    3    17     1
    3    24     1
    3    25     1
    3    26     1
    3    28     1
    3    30     1
    3    39     1
    4     7     1
    4    19     1
    4    23     1
    4    29     1
    4    31     1
    5     8     1
    5    30     1
    6    27     1
    6    31     1
    7    28     1
    8    19     1
    8    23     1
    8    27     1
    8    29     1
    9    12     1
    9    15     1
    9    22     1
    9    40     1
   10    13     1
   10    34     1
   10    35     1
   11    14     1
   11    15     1
   11    32     1
   12    18     1
   12    20     1
   12    33     1
   12    35     1
   13    16     1
   13    22     1
   13    32     1
   13    38     1
   13    40     1
   14    18     1
   14    20     1
   14    33     1
   14    34     1
   15    17     1
   15    34     1
   15    35     1
   15    36     1
   15    37     1
   16    20     1
   16    39     1
   17    23     1
   17    38     1
   18    19     1
   18    21     1
   19    24     1
   19    25     1
   19    26     1
   19    36     1
   19    37     1
   20    38     1
   21    36     1
   21    37     1
   21    39     1
   22    33     1
   22    34     1
   23    24     1
   23    25     1
   23    26     1
   23    39     1
   27    28     1
   28    29     1
   29    30     1
   30    31     1
   32    33     1
   32    35     1
   33    40     1
   34    40     1
   36    38     1
   37    38     1

[ angles ] 
; ai	aj	ak	funct	th0	cth	S0	Kub
    2     1     3     5
    2     1    19     5
    2     1    23     5
    3     1    19     5
    3     1    23     5
   19     1    23     5
    1     2    24     5
    1     2    25     5
    1     2    26     5
   24     2    25     5
   24     2    26     5
   25     2    26     5
    1     3     4     5
    1     3     8     5
    4     3     8     5
    3     4     5     5
    3     4    27     5
    5     4    27     5
    4     5     6     5
    4     5    28     5
    6     5    28     5
    5     6     7     5
    5     6    29     5
    7     6    29     5
    6     7     8     5
    6     7    30     5
    8     7    30     5
    3     8     7     5
    3     8    31     5
    7     8    31     5
   10     9    14     5
   10     9    32     5
   14     9    32     5
    9    10    11     5
    9    10    33     5
   11    10    33     5
   10    11    12     5
   10    11    22     5
   12    11    22     5
   11    12    13     5
   11    12    34     5
   13    12    34     5
   12    13    14     5
   12    13    15     5
   14    13    15     5
    9    14    13     5
    9    14    35     5
   13    14    35     5
   13    15    18     5
   13    15    20     5
   18    15    20     5
   17    16    18     5
   17    16    36     5
   17    16    37     5
   18    16    36     5
   18    16    37     5
   36    16    37     5
   16    17    19     5
   16    17    21     5
   19    17    21     5
   15    18    16     5
   15    18    38     5
   16    18    38     5
    1    19    17     5
    1    19    39     5
   17    19    39     5

[ dihedrals ]
; ai	aj	ak	al	funct	phi0	cp	mult
    3     1     2    24     9
    3     1     2    25     9
    3     1     2    26     9
   19     1     2    24     9
   19     1     2    25     9
   19     1     2    26     9
   23     1     2    24     9
   23     1     2    25     9
   23     1     2    26     9
    2     1     3     4     9
    2     1     3     8     9
    2     1    19    17     9
    2     1    19    39     9
    3     1    19    17     9
    3     1    19    39     9
   23     1    19    39     9
    4     3     1    19     9
    4     3     1    23     9
    8     3     1    19     9
    8     3     1    23     9
    1     3     4     5     9
    1     3     4    27     9
    8     3     4    27     9
    1     3     8     7     9
    1     3     8    31     9
    4     3     8     7     9
    4     3     8    31     9
    5     4     3     8     9
    3     4     5     6     9
    3     4     5    28     9
   27     4     5    28     9
    6     5     4    27     9
    4     5     6     7     9
    4     5     6    29     9
   28     5     6    29     9
    7     6     5    28     9
    5     6     7     8     9
    5     6     7    30     9
   29     6     7    30     9
    8     7     6    29     9
    6     7     8    31     9
   30     7     8    31     9
    3     8     7     6     9
    3     8     7    30     9
   14     9    10    33     9
   32     9    10    33     9
   10     9    14    13     9
   10     9    14    35     9
   32     9    14    35     9
   11    10     9    14     9
   11    10     9    32     9
    9    10    11    12     9
    9    10    11    22     9
   12    11    10    33     9
   22    11    10    33     9
   10    11    12    13     9
   10    11    12    34     9
   22    11    12    34     9
   13    12    11    22     9
   11    12    13    14     9
   11    12    13    15     9
   14    13    12    34     9
   15    13    12    34     9
   12    13    14    35     9
   15    13    14    35     9
   12    13    15    18     9
   12    13    15    20     9
   14    13    15    18     9
   14    13    15    20     9
   13    14     9    32     9
    9    14    13    12     9
    9    14    13    15     9
   13    15    18    16     9
   13    15    18    38     9
   20    15    18    38     9
   18    16    17    19     9
   18    16    17    21     9
   17    16    18    38     9
   36    16    18    38     9
   37    16    18    38     9
   19    17    16    36     9
   19    17    16    37     9
   21    17    16    36     9
   21    17    16    37     9
   16    17    19    39     9
   21    17    19    39     9
   16    18    15    20     9
   15    18    16    17     9
   15    18    16    36     9
   15    18    16    37     9
   17    19     1    23     9
    1    19    17    16     9
    1    19    17    21     9

[ dihedrals ]
; ai	aj	ak	al	funct	q0	cq
   15    13    18    20     2
   17    16    19    21     2

[ virtual_sites3 ]
; Site   from               funct theta d
   40    22    11    12     3   180.00    0.164

[ exclusions ]
;   ai    aj
   40    22     1
   40    11     1
   40    12     1
   40    13     1
   40    34     1
   40    10     1
   40     9     1
   40    33     1

#ifdef POSRES
[ position_restraints ]
    1     1    POSRES_FC_BB    POSRES_FC_BB    POSRES_FC_BB   
    2     1    POSRES_FC_BB    POSRES_FC_BB    POSRES_FC_BB   
    3     1    POSRES_FC_BB    POSRES_FC_BB    POSRES_FC_BB   
    4     1    POSRES_FC_BB    POSRES_FC_BB    POSRES_FC_BB   
    5     1    POSRES_FC_BB    POSRES_FC_BB    POSRES_FC_BB   
    6     1    POSRES_FC_BB    POSRES_FC_BB    POSRES_FC_BB   
    7     1    POSRES_FC_BB    POSRES_FC_BB    POSRES_FC_BB   
    8     1    POSRES_FC_BB    POSRES_FC_BB    POSRES_FC_BB   
    9     1    POSRES_FC_BB    POSRES_FC_BB    POSRES_FC_BB   
   10     1    POSRES_FC_BB    POSRES_FC_BB    POSRES_FC_BB   
   11     1    POSRES_FC_BB    POSRES_FC_BB    POSRES_FC_BB   
   12     1    POSRES_FC_BB    POSRES_FC_BB    POSRES_FC_BB   
   13     1    POSRES_FC_BB    POSRES_FC_BB    POSRES_FC_BB   
   14     1    POSRES_FC_BB    POSRES_FC_BB    POSRES_FC_BB   
   15     1    POSRES_FC_BB    POSRES_FC_BB    POSRES_FC_BB   
   16     1    POSRES_FC_BB    POSRES_FC_BB    POSRES_FC_BB   
   17     1    POSRES_FC_BB    POSRES_FC_BB    POSRES_FC_BB   
   18     1    POSRES_FC_BB    POSRES_FC_BB    POSRES_FC_BB   
   19     1    POSRES_FC_BB    POSRES_FC_BB    POSRES_FC_BB   
   20     1    POSRES_FC_BB    POSRES_FC_BB    POSRES_FC_BB   
   21     1    POSRES_FC_BB    POSRES_FC_BB    POSRES_FC_BB   
   22     1    POSRES_FC_BB    POSRES_FC_BB    POSRES_FC_BB   
#endif
